 Entering Gaussian System, Link 0=g09
 Input=s1_3_3_ane.com
 Output=s1_3_3_ane.log
 Initial command:
 /usr/common/usg/g09/c1/g09/l1.exe /scratch1/scratchdirs/cgrambow/Gau-35743.inp -scrdir=/scratch1/scratchdirs/cgrambow/
 Entering Link 1 = /usr/common/usg/g09/c1/g09/l1.exe PID=     35744.
  
 Copyright (c) 1988,1990,1992,1993,1995,1998,2003,2009,2011,
            Gaussian, Inc.  All Rights Reserved.
  
 This is part of the Gaussian(R) 09 program.  It is based on
 the Gaussian(R) 03 system (copyright 2003, Gaussian, Inc.),
 the Gaussian(R) 98 system (copyright 1998, Gaussian, Inc.),
 the Gaussian(R) 94 system (copyright 1995, Gaussian, Inc.),
 the Gaussian 92(TM) system (copyright 1992, Gaussian, Inc.),
 the Gaussian 90(TM) system (copyright 1990, Gaussian, Inc.),
 the Gaussian 88(TM) system (copyright 1988, Gaussian, Inc.),
 the Gaussian 86(TM) system (copyright 1986, Carnegie Mellon
 University), and the Gaussian 82(TM) system (copyright 1983,
 Carnegie Mellon University). Gaussian is a federally registered
 trademark of Gaussian, Inc.
  
 This software contains proprietary and confidential information,
 including trade secrets, belonging to Gaussian, Inc.
  
 This software is provided under written license and may be
 used, copied, transmitted, or stored only in accord with that
 written license.
  
 The following legend is applicable only to US Government
 contracts under FAR:
  
                    RESTRICTED RIGHTS LEGEND
  
 Use, reproduction and disclosure by the US Government is
 subject to restrictions as set forth in subparagraphs (a)
 and (c) of the Commercial Computer Software - Restricted
 Rights clause in FAR 52.227-19.
  
 Gaussian, Inc.
 340 Quinnipiac St., Bldg. 40, Wallingford CT 06492
  
  
 ---------------------------------------------------------------
 Warning -- This program may not be used in any manner that
 competes with the business of Gaussian, Inc. or will provide
 assistance to any competitor of Gaussian, Inc.  The licensee
 of this program is prohibited from giving any competitor of
 Gaussian, Inc. access to this program.  By using this program,
 the user acknowledges that Gaussian, Inc. is engaged in the
 business of creating and licensing software in the field of
 computational chemistry and represents and warrants to the
 licensee that it is not a competitor of Gaussian, Inc. and that
 it will not use this program in any manner prohibited above.
 ---------------------------------------------------------------
  

 Cite this work as:
 Gaussian 09, Revision C.01,
 M. J. Frisch, G. W. Trucks, H. B. Schlegel, G. E. Scuseria, 
 M. A. Robb, J. R. Cheeseman, G. Scalmani, V. Barone, B. Mennucci, 
 G. A. Petersson, H. Nakatsuji, M. Caricato, X. Li, H. P. Hratchian, 
 A. F. Izmaylov, J. Bloino, G. Zheng, J. L. Sonnenberg, M. Hada, 
 M. Ehara, K. Toyota, R. Fukuda, J. Hasegawa, M. Ishida, T. Nakajima, 
 Y. Honda, O. Kitao, H. Nakai, T. Vreven, J. A. Montgomery, Jr., 
 J. E. Peralta, F. Ogliaro, M. Bearpark, J. J. Heyd, E. Brothers, 
 K. N. Kudin, V. N. Staroverov, T. Keith, R. Kobayashi, J. Normand, 
 K. Raghavachari, A. Rendell, J. C. Burant, S. S. Iyengar, J. Tomasi, 
 M. Cossi, N. Rega, J. M. Millam, M. Klene, J. E. Knox, J. B. Cross, 
 V. Bakken, C. Adamo, J. Jaramillo, R. Gomperts, R. E. Stratmann, 
 O. Yazyev, A. J. Austin, R. Cammi, C. Pomelli, J. W. Ochterski, 
 R. L. Martin, K. Morokuma, V. G. Zakrzewski, G. A. Voth, 
 P. Salvador, J. J. Dannenberg, S. Dapprich, A. D. Daniels, 
 O. Farkas, J. B. Foresman, J. V. Ortiz, J. Cioslowski, 
 and D. J. Fox, Gaussian, Inc., Wallingford CT, 2010.
 
 ******************************************
 Gaussian 09:  EM64L-G09RevC.01 23-Sep-2011
                 9-Mar-2016 
 ******************************************
 %chk=s1_3_3_ane.chk
 %mem=1500mb
 %nproc=24
 Will use up to   24 processors via shared memory.
 -------------------------
 # opt freq um062x/cc-pvtz
 -------------------------
 1/14=-1,18=20,19=15,26=3,38=1/1,3;
 2/9=110,12=2,17=6,18=5,40=1/2;
 3/5=16,6=1,11=2,16=1,25=1,30=1,71=1,74=-55,116=2/1,2,3;
 4//1;
 5/5=2,38=5/2;
 6/7=2,8=2,9=2,10=2,28=1/1;
 7//1,2,3,16;
 1/14=-1,18=20,19=15/3(2);
 2/9=110/2;
 99//99;
 2/9=110/2;
 3/5=16,6=1,11=2,16=1,25=1,30=1,71=1,74=-55,116=2/1,2,3;
 4/5=5,16=3/1;
 5/5=2,38=5/2;
 7//1,2,3,16;
 1/14=-1,18=20,19=15/3(-5);
 2/9=110/2;
 6/7=2,8=2,9=2,10=2,19=2,28=1/1;
 99/9=1/99;
 ----------
 s1_3_3_ane
 ----------
 Charge =  0 Multiplicity = 1
 Symbolic Z-Matrix:
 C                    -1.25909  -0.72835  -0.25862 
 C                    -0.00001  -0.03642  -0.01492 
 C                    -1.21747   0.71771   0.25441 
 C                     1.23928  -0.32552   0.69507 
 C                     1.23728   0.19044  -0.75055 
 H                    -1.56636  -1.49911   0.43705 
 H                    -1.5686   -0.889    -1.28369 
 H                    -1.50001   1.50327  -0.43516 
 H                    -1.49728   0.89315   1.28557 
 H                     1.51005  -1.36116   0.85802 
 H                     1.55938   0.35756   1.4718 
 H                     1.50651  -0.50744  -1.53339 
 H                     1.55631   1.21126  -0.9196 
 

 GradGradGradGradGradGradGradGradGradGradGradGradGradGradGradGradGradGrad
 Berny optimization.
 Initialization pass.
                           ----------------------------
                           !    Initial Parameters    !
                           ! (Angstroms and Degrees)  !
 --------------------------                            --------------------------
 ! Name  Definition              Value          Derivative Info.                !
 --------------------------------------------------------------------------------
 ! R1    R(1,2)                  1.4572         estimate D2E/DX2                !
 ! R2    R(1,3)                  1.5349         estimate D2E/DX2                !
 ! R3    R(1,6)                  1.0828         estimate D2E/DX2                !
 ! R4    R(1,7)                  1.0828         estimate D2E/DX2                !
 ! R5    R(2,3)                  1.4572         estimate D2E/DX2                !
 ! R6    R(2,4)                  1.4572         estimate D2E/DX2                !
 ! R7    R(2,5)                  1.4572         estimate D2E/DX2                !
 ! R8    R(3,8)                  1.0828         estimate D2E/DX2                !
 ! R9    R(3,9)                  1.0828         estimate D2E/DX2                !
 ! R10   R(4,5)                  1.5349         estimate D2E/DX2                !
 ! R11   R(4,10)                 1.0828         estimate D2E/DX2                !
 ! R12   R(4,11)                 1.0828         estimate D2E/DX2                !
 ! R13   R(5,12)                 1.0828         estimate D2E/DX2                !
 ! R14   R(5,13)                 1.0828         estimate D2E/DX2                !
 ! A1    A(2,1,6)              118.4079         estimate D2E/DX2                !
 ! A2    A(2,1,7)              118.4093         estimate D2E/DX2                !
 ! A3    A(3,1,6)              117.6174         estimate D2E/DX2                !
 ! A4    A(3,1,7)              117.6428         estimate D2E/DX2                !
 ! A5    A(6,1,7)              114.9301         estimate D2E/DX2                !
 ! A6    A(1,2,4)              136.2279         estimate D2E/DX2                !
 ! A7    A(1,2,5)              136.3135         estimate D2E/DX2                !
 ! A8    A(3,2,4)              136.3147         estimate D2E/DX2                !
 ! A9    A(3,2,5)              136.2293         estimate D2E/DX2                !
 ! A10   A(1,3,8)              117.6168         estimate D2E/DX2                !
 ! A11   A(1,3,9)              117.6423         estimate D2E/DX2                !
 ! A12   A(2,3,8)              118.4086         estimate D2E/DX2                !
 ! A13   A(2,3,9)              118.41           estimate D2E/DX2                !
 ! A14   A(8,3,9)              114.93           estimate D2E/DX2                !
 ! A15   A(2,4,10)             118.4079         estimate D2E/DX2                !
 ! A16   A(2,4,11)             118.4098         estimate D2E/DX2                !
 ! A17   A(5,4,10)             117.6176         estimate D2E/DX2                !
 ! A18   A(5,4,11)             117.6416         estimate D2E/DX2                !
 ! A19   A(10,4,11)            114.9303         estimate D2E/DX2                !
 ! A20   A(2,5,12)             118.4094         estimate D2E/DX2                !
 ! A21   A(2,5,13)             118.4084         estimate D2E/DX2                !
 ! A22   A(4,5,12)             117.6425         estimate D2E/DX2                !
 ! A23   A(4,5,13)             117.6172         estimate D2E/DX2                !
 ! A24   A(12,5,13)            114.9301         estimate D2E/DX2                !
 ! D1    D(6,1,2,4)             23.8689         estimate D2E/DX2                !
 ! D2    D(6,1,2,5)            123.1328         estimate D2E/DX2                !
 ! D3    D(7,1,2,4)           -122.9972         estimate D2E/DX2                !
 ! D4    D(7,1,2,5)            -23.7333         estimate D2E/DX2                !
 ! D5    D(6,1,3,8)           -144.1839         estimate D2E/DX2                !
 ! D6    D(6,1,3,9)              0.0095         estimate D2E/DX2                !
 ! D7    D(7,1,3,8)              0.0115         estimate D2E/DX2                !
 ! D8    D(7,1,3,9)            144.205          estimate D2E/DX2                !
 ! D9    D(4,2,3,8)            123.1359         estimate D2E/DX2                !
 ! D10   D(4,2,3,9)            -23.7326         estimate D2E/DX2                !
 ! D11   D(5,2,3,8)             23.8687         estimate D2E/DX2                !
 ! D12   D(5,2,3,9)           -122.9997         estimate D2E/DX2                !
 ! D13   D(1,2,4,10)            23.8662         estimate D2E/DX2                !
 ! D14   D(1,2,4,11)          -123.0012         estimate D2E/DX2                !
 ! D15   D(3,2,4,10)           123.1329         estimate D2E/DX2                !
 ! D16   D(3,2,4,11)           -23.7346         estimate D2E/DX2                !
 ! D17   D(1,2,5,12)           -23.7309         estimate D2E/DX2                !
 ! D18   D(1,2,5,13)           123.136          estimate D2E/DX2                !
 ! D19   D(3,2,5,12)          -122.9979         estimate D2E/DX2                !
 ! D20   D(3,2,5,13)            23.8691         estimate D2E/DX2                !
 ! D21   D(10,4,5,12)            0.0102         estimate D2E/DX2                !
 ! D22   D(10,4,5,13)         -144.1842         estimate D2E/DX2                !
 ! D23   D(11,4,5,12)          144.2044         estimate D2E/DX2                !
 ! D24   D(11,4,5,13)            0.0101         estimate D2E/DX2                !
 --------------------------------------------------------------------------------
 Trust Radius=3.00D-01 FncErr=1.00D-07 GrdErr=1.00D-06
 Number of steps in this run=     72 maximum allowed number of steps=    100.
 GradGradGradGradGradGradGradGradGradGradGradGradGradGradGradGradGradGrad

                          Input orientation:                          
 ---------------------------------------------------------------------
 Center     Atomic      Atomic             Coordinates (Angstroms)
 Number     Number       Type             X           Y           Z
 ---------------------------------------------------------------------
      1          6           0       -1.259090   -0.728350   -0.258620
      2          6           0       -0.000010   -0.036420   -0.014920
      3          6           0       -1.217470    0.717710    0.254410
      4          6           0        1.239280   -0.325520    0.695070
      5          6           0        1.237280    0.190440   -0.750550
      6          1           0       -1.566360   -1.499110    0.437050
      7          1           0       -1.568600   -0.889000   -1.283690
      8          1           0       -1.500010    1.503270   -0.435160
      9          1           0       -1.497280    0.893150    1.285570
     10          1           0        1.510050   -1.361160    0.858020
     11          1           0        1.559380    0.357560    1.471800
     12          1           0        1.506510   -0.507440   -1.533390
     13          1           0        1.556310    1.211260   -0.919600
 ---------------------------------------------------------------------
                    Distance matrix (angstroms):
                    1          2          3          4          5
     1  C    0.000000
     2  C    1.457203   0.000000
     3  C    1.534934   1.457210   0.000000
     4  C    2.704376   1.457225   2.705204   0.000000
     5  C    2.705186   1.457225   2.704396   1.534938   0.000000
     6  H    1.082794   2.190249   2.251527   3.052131   3.482150
     7  H    1.082762   2.190238   2.251791   3.480976   3.053259
     8  H    2.251519   2.190262   1.082793   3.482184   3.052171
     9  H    2.251781   2.190249   1.082757   3.053295   3.481006
    10  H    3.052125   2.190261   3.482156   1.082783   2.251525
    11  H    3.480995   2.190263   3.053300   1.082761   2.251781
    12  H    3.053258   2.190254   3.480990   2.251786   1.082756
    13  H    3.482163   2.190270   3.052171   2.251524   1.082789
                    6          7          8          9         10
     6  H    0.000000
     7  H    1.825701   0.000000
     8  H    3.127209   2.539225   0.000000
     9  H    2.539226   3.127658   1.825696   0.000000
    10  H    3.108142   3.779939   4.351751   3.782690   0.000000
    11  H    3.779971   4.350965   3.782726   3.108811   1.825694
    12  H    3.782667   3.108736   3.779977   4.350970   2.539231
    13  H    4.351744   3.782686   3.108222   3.779997   3.127206
                   11         12         13
    11  H    0.000000
    12  H    3.127649   0.000000
    13  H    2.539214   1.825691   0.000000
 Stoichiometry    C5H8
 Framework group  C1[X(C5H8)]
 Deg. of freedom    33
 Full point group                 C1      NOp   1
 Largest Abelian subgroup         C1      NOp   1
 Largest concise Abelian subgroup C1      NOp   1
                         Standard orientation:                         
 ---------------------------------------------------------------------
 Center     Atomic      Atomic             Coordinates (Angstroms)
 Number     Number       Type             X           Y           Z
 ---------------------------------------------------------------------
      1          6           0        1.238723   -0.542815    0.542553
      2          6           0        0.000009    0.000007   -0.000006
      3          6           0        1.238748    0.542809   -0.542548
      4          6           0       -1.238738   -0.543558   -0.541806
      5          6           0       -1.238739    0.543561    0.541802
      6          1           0        1.533720   -1.543226    0.251697
      7          1           0        1.533476   -0.252861    1.543263
      8          1           0        1.533778    1.543205   -0.251678
      9          1           0        1.533532    0.252844   -1.543241
     10          1           0       -1.533734   -1.543557   -0.249575
     11          1           0       -1.533525   -0.254964   -1.542898
     12          1           0       -1.533499    0.254978    1.542899
     13          1           0       -1.533761    1.543557    0.249565
 ---------------------------------------------------------------------
 Rotational constants (GHZ):     10.5315689      4.3350450      4.3326999
 Standard basis: CC-pVTZ (5D, 7F)
 There are   262 symmetry adapted basis functions of A   symmetry.
 Integral buffers will be    131072 words long.
 Raffenetti 2 integral format.
 Two-electron integral symmetry is turned on.
   262 basis functions,   396 primitive gaussians,   295 cartesian basis functions
    19 alpha electrons       19 beta electrons
       nuclear repulsion energy       172.1974229791 Hartrees.
 NAtoms=   13 NActive=   13 NUniq=   13 SFac= 1.00D+00 NAtFMM=   60 NAOKFM=F Big=F
 One-electron integrals computed using PRISM.
 NBasis=   262 RedAO= T  NBF=   262
 NBsUse=   262 1.00D-06 NBFU=   262
 Harris functional with IExCor= 1009 diagonalized for initial guess.
 ExpMin= 1.03D-01 ExpMax= 8.24D+03 ExpMxC= 2.81D+02 IAcc=1 IRadAn=         1 AccDes= 0.00D+00
 HarFok:  IExCor= 1009 AccDes= 0.00D+00 IRadAn=         1 IDoV= 1
 ScaDFX=  1.000000  1.000000  1.000000  1.000000
 FoFCou: FMM=F IPFlag=           0 FMFlag=      100000 FMFlg1=           0
         NFxFlg=           0 DoJE=T BraDBF=F KetDBF=T FulRan=T
         Omega=  0.000000  0.000000  1.000000  0.000000  0.000000 ICntrl=     500 IOpCl=  0
         NMat0=    1 NMatS0=    1 NMatT0=    0 NMatD0=    1 NMtDS0=    0 NMtDT0=    0
         I1Cent=           4 NGrid=           0.
 Petite list used in FoFCou.
 Initial guess orbital symmetries:
 Alpha Orbitals:
       Occupied  (A) (A) (A) (A) (A) (A) (A) (A) (A) (A) (A) (A)
                 (A) (A) (A) (A) (A) (A) (A)
       Virtual   (A) (A) (A) (A) (A) (A) (A) (A) (A) (A) (A) (A)
                 (A) (A) (A) (A) (A) (A) (A) (A) (A) (A) (A) (A)
                 (A) (A) (A) (A) (A) (A) (A) (A) (A) (A) (A) (A)
                 (A) (A) (A) (A) (A) (A) (A) (A) (A) (A) (A) (A)
                 (A) (A) (A) (A) (A) (A) (A) (A) (A) (A) (A) (A)
                 (A) (A) (A) (A) (A) (A) (A) (A) (A) (A) (A) (A)
                 (A) (A) (A) (A) (A) (A) (A) (A) (A) (A) (A) (A)
                 (A) (A) (A) (A) (A) (A) (A) (A) (A) (A) (A) (A)
                 (A) (A) (A) (A) (A) (A) (A) (A) (A) (A) (A) (A)
                 (A) (A) (A) (A) (A) (A) (A) (A) (A) (A) (A) (A)
                 (A) (A) (A) (A) (A) (A) (A) (A) (A) (A) (A) (A)
                 (A) (A) (A) (A) (A) (A) (A) (A) (A) (A) (A) (A)
                 (A) (A) (A) (A) (A) (A) (A) (A) (A) (A) (A) (A)
                 (A) (A) (A) (A) (A) (A) (A) (A) (A) (A) (A) (A)
                 (A) (A) (A) (A) (A) (A) (A) (A) (A) (A) (A) (A)
                 (A) (A) (A) (A) (A) (A) (A) (A) (A) (A) (A) (A)
                 (A) (A) (A) (A) (A) (A) (A) (A) (A) (A) (A) (A)
                 (A) (A) (A) (A) (A) (A) (A) (A) (A) (A) (A) (A)
                 (A) (A) (A) (A) (A) (A) (A) (A) (A) (A) (A) (A)
                 (A) (A) (A) (A) (A) (A) (A) (A) (A) (A) (A) (A)
                 (A) (A) (A)
 Beta  Orbitals:
       Occupied  (A) (A) (A) (A) (A) (A) (A) (A) (A) (A) (A) (A)
                 (A) (A) (A) (A) (A) (A) (A)
       Virtual   (A) (A) (A) (A) (A) (A) (A) (A) (A) (A) (A) (A)
                 (A) (A) (A) (A) (A) (A) (A) (A) (A) (A) (A) (A)
                 (A) (A) (A) (A) (A) (A) (A) (A) (A) (A) (A) (A)
                 (A) (A) (A) (A) (A) (A) (A) (A) (A) (A) (A) (A)
                 (A) (A) (A) (A) (A) (A) (A) (A) (A) (A) (A) (A)
                 (A) (A) (A) (A) (A) (A) (A) (A) (A) (A) (A) (A)
                 (A) (A) (A) (A) (A) (A) (A) (A) (A) (A) (A) (A)
                 (A) (A) (A) (A) (A) (A) (A) (A) (A) (A) (A) (A)
                 (A) (A) (A) (A) (A) (A) (A) (A) (A) (A) (A) (A)
                 (A) (A) (A) (A) (A) (A) (A) (A) (A) (A) (A) (A)
                 (A) (A) (A) (A) (A) (A) (A) (A) (A) (A) (A) (A)
                 (A) (A) (A) (A) (A) (A) (A) (A) (A) (A) (A) (A)
                 (A) (A) (A) (A) (A) (A) (A) (A) (A) (A) (A) (A)
                 (A) (A) (A) (A) (A) (A) (A) (A) (A) (A) (A) (A)
                 (A) (A) (A) (A) (A) (A) (A) (A) (A) (A) (A) (A)
                 (A) (A) (A) (A) (A) (A) (A) (A) (A) (A) (A) (A)
                 (A) (A) (A) (A) (A) (A) (A) (A) (A) (A) (A) (A)
                 (A) (A) (A) (A) (A) (A) (A) (A) (A) (A) (A) (A)
                 (A) (A) (A) (A) (A) (A) (A) (A) (A) (A) (A) (A)
                 (A) (A) (A) (A) (A) (A) (A) (A) (A) (A) (A) (A)
                 (A) (A) (A)
 The electronic state of the initial guess is 1-A.
 Initial guess <Sx>= 0.0000 <Sy>= 0.0000 <Sz>= 0.0000 <S**2>= 0.0000 S= 0.0000
 Requested convergence on RMS density matrix=1.00D-08 within 128 cycles.
 Requested convergence on MAX density matrix=1.00D-06.
 Requested convergence on             energy=1.00D-06.
 No special actions if energy rises.
 Integral accuracy reduced to 1.0D-05 until final iterations.
 Initial convergence to 1.0D-05 achieved.  Increase integral accuracy.
 SCF Done:  E(UM062X) =  -195.250060572     A.U. after   13 cycles
             Convg  =    0.3481D-08             -V/T =  2.0061
 <Sx>= 0.0000 <Sy>= 0.0000 <Sz>= 0.0000 <S**2>= 0.0000 S= 0.0000
 <L.S>= 0.000000000000E+00
 Annihilation of the first spin contaminant:
 S**2 before annihilation     0.0000,   after     0.0000

 **********************************************************************

            Population analysis using the SCF density.

 **********************************************************************

 Orbital symmetries:
 Alpha Orbitals:
       Occupied  (A) (A) (A) (A) (A) (A) (A) (A) (A) (A) (A) (A)
                 (A) (A) (A) (A) (A) (A) (A)
       Virtual   (A) (A) (A) (A) (A) (A) (A) (A) (A) (A) (A) (A)
                 (A) (A) (A) (A) (A) (A) (A) (A) (A) (A) (A) (A)
                 (A) (A) (A) (A) (A) (A) (A) (A) (A) (A) (A) (A)
                 (A) (A) (A) (A) (A) (A) (A) (A) (A) (A) (A) (A)
                 (A) (A) (A) (A) (A) (A) (A) (A) (A) (A) (A) (A)
                 (A) (A) (A) (A) (A) (A) (A) (A) (A) (A) (A) (A)
                 (A) (A) (A) (A) (A) (A) (A) (A) (A) (A) (A) (A)
                 (A) (A) (A) (A) (A) (A) (A) (A) (A) (A) (A) (A)
                 (A) (A) (A) (A) (A) (A) (A) (A) (A) (A) (A) (A)
                 (A) (A) (A) (A) (A) (A) (A) (A) (A) (A) (A) (A)
                 (A) (A) (A) (A) (A) (A) (A) (A) (A) (A) (A) (A)
                 (A) (A) (A) (A) (A) (A) (A) (A) (A) (A) (A) (A)
                 (A) (A) (A) (A) (A) (A) (A) (A) (A) (A) (A) (A)
                 (A) (A) (A) (A) (A) (A) (A) (A) (A) (A) (A) (A)
                 (A) (A) (A) (A) (A) (A) (A) (A) (A) (A) (A) (A)
                 (A) (A) (A) (A) (A) (A) (A) (A) (A) (A) (A) (A)
                 (A) (A) (A) (A) (A) (A) (A) (A) (A) (A) (A) (A)
                 (A) (A) (A) (A) (A) (A) (A) (A) (A) (A) (A) (A)
                 (A) (A) (A) (A) (A) (A) (A) (A) (A) (A) (A) (A)
                 (A) (A) (A) (A) (A) (A) (A) (A) (A) (A) (A) (A)
                 (A) (A) (A)
 Beta  Orbitals:
       Occupied  (A) (A) (A) (A) (A) (A) (A) (A) (A) (A) (A) (A)
                 (A) (A) (A) (A) (A) (A) (A)
       Virtual   (A) (A) (A) (A) (A) (A) (A) (A) (A) (A) (A) (A)
                 (A) (A) (A) (A) (A) (A) (A) (A) (A) (A) (A) (A)
                 (A) (A) (A) (A) (A) (A) (A) (A) (A) (A) (A) (A)
                 (A) (A) (A) (A) (A) (A) (A) (A) (A) (A) (A) (A)
                 (A) (A) (A) (A) (A) (A) (A) (A) (A) (A) (A) (A)
                 (A) (A) (A) (A) (A) (A) (A) (A) (A) (A) (A) (A)
                 (A) (A) (A) (A) (A) (A) (A) (A) (A) (A) (A) (A)
                 (A) (A) (A) (A) (A) (A) (A) (A) (A) (A) (A) (A)
                 (A) (A) (A) (A) (A) (A) (A) (A) (A) (A) (A) (A)
                 (A) (A) (A) (A) (A) (A) (A) (A) (A) (A) (A) (A)
                 (A) (A) (A) (A) (A) (A) (A) (A) (A) (A) (A) (A)
                 (A) (A) (A) (A) (A) (A) (A) (A) (A) (A) (A) (A)
                 (A) (A) (A) (A) (A) (A) (A) (A) (A) (A) (A) (A)
                 (A) (A) (A) (A) (A) (A) (A) (A) (A) (A) (A) (A)
                 (A) (A) (A) (A) (A) (A) (A) (A) (A) (A) (A) (A)
                 (A) (A) (A) (A) (A) (A) (A) (A) (A) (A) (A) (A)
                 (A) (A) (A) (A) (A) (A) (A) (A) (A) (A) (A) (A)
                 (A) (A) (A) (A) (A) (A) (A) (A) (A) (A) (A) (A)
                 (A) (A) (A) (A) (A) (A) (A) (A) (A) (A) (A) (A)
                 (A) (A) (A) (A) (A) (A) (A) (A) (A) (A) (A) (A)
                 (A) (A) (A)
 The electronic state is 1-A.
 Alpha  occ. eigenvalues --  -10.54343 -10.53563 -10.53559 -10.53526 -10.53526
 Alpha  occ. eigenvalues --   -0.99092  -0.89312  -0.69074  -0.69064  -0.61720
 Alpha  occ. eigenvalues --   -0.55611  -0.54458  -0.54449  -0.43666  -0.42032
 Alpha  occ. eigenvalues --   -0.40800  -0.34743  -0.34710  -0.32270
 Alpha virt. eigenvalues --    0.08415   0.09388   0.09391   0.10265   0.12855
 Alpha virt. eigenvalues --    0.12858   0.16321   0.17009   0.19113   0.20026
 Alpha virt. eigenvalues --    0.20033   0.22824   0.25735   0.25770   0.31524
 Alpha virt. eigenvalues --    0.31918   0.33864   0.33877   0.38839   0.38848
 Alpha virt. eigenvalues --    0.39471   0.40139   0.40158   0.45744   0.45748
 Alpha virt. eigenvalues --    0.47287   0.48876   0.48877   0.51803   0.52492
 Alpha virt. eigenvalues --    0.52503   0.52555   0.52872   0.53246   0.56636
 Alpha virt. eigenvalues --    0.56659   0.59009   0.72643   0.72965   0.73229
 Alpha virt. eigenvalues --    0.75463   0.75499   0.83327   0.84032   0.87900
 Alpha virt. eigenvalues --    0.87986   0.89079   0.93212   1.02022   1.03276
 Alpha virt. eigenvalues --    1.03313   1.03386   1.04435   1.05268   1.05308
 Alpha virt. eigenvalues --    1.08157   1.08223   1.08750   1.10935   1.10949
 Alpha virt. eigenvalues --    1.13210   1.13221   1.14905   1.20806   1.20809
 Alpha virt. eigenvalues --    1.23268   1.24594   1.24602   1.25239   1.29416
 Alpha virt. eigenvalues --    1.29427   1.33947   1.35256   1.36517   1.36526
 Alpha virt. eigenvalues --    1.37677   1.38231   1.46646   1.49696   1.51507
 Alpha virt. eigenvalues --    1.51542   1.52359   1.54431   1.54457   1.59059
 Alpha virt. eigenvalues --    1.62324   1.65414   1.65600   1.80985   1.81070
 Alpha virt. eigenvalues --    1.81157   2.16001   2.24495   2.25902   2.25913
 Alpha virt. eigenvalues --    2.28027   2.28040   2.31560   2.41603   2.42748
 Alpha virt. eigenvalues --    2.42752   2.47771   2.48312   2.50931   2.50970
 Alpha virt. eigenvalues --    2.52222   2.59189   2.64105   2.71761   2.71801
 Alpha virt. eigenvalues --    2.72680   2.74376   2.76462   2.76547   2.78307
 Alpha virt. eigenvalues --    2.80302   2.81733   2.82767   2.82790   2.86746
 Alpha virt. eigenvalues --    2.86762   2.87513   2.95044   2.97406   2.98300
 Alpha virt. eigenvalues --    2.99595   2.99603   3.02542   3.02558   3.03874
 Alpha virt. eigenvalues --    3.03876   3.11459   3.11464   3.13699   3.14084
 Alpha virt. eigenvalues --    3.15927   3.15938   3.16700   3.17909   3.17998
 Alpha virt. eigenvalues --    3.18264   3.18296   3.25594   3.28976   3.28997
 Alpha virt. eigenvalues --    3.35369   3.36824   3.36836   3.39377   3.45245
 Alpha virt. eigenvalues --    3.45292   3.48481   3.50283   3.54642   3.54648
 Alpha virt. eigenvalues --    3.58613   3.59012   3.60817   3.64794   3.65128
 Alpha virt. eigenvalues --    3.65163   3.65721   3.66067   3.66947   3.69086
 Alpha virt. eigenvalues --    3.69162   3.73133   3.80690   3.85967   3.85978
 Alpha virt. eigenvalues --    3.86434   3.89120   3.90833   3.90911   3.91467
 Alpha virt. eigenvalues --    3.95605   3.98612   3.99962   3.99997   4.00071
 Alpha virt. eigenvalues --    4.05691   4.09355   4.09358   4.10800   4.11949
 Alpha virt. eigenvalues --    4.11955   4.12477   4.15043   4.15071   4.15500
 Alpha virt. eigenvalues --    4.22526   4.22558   4.22970   4.29325   4.33467
 Alpha virt. eigenvalues --    4.34951   4.39594   4.41775   4.41819   4.46722
 Alpha virt. eigenvalues --    4.58911   4.60955   4.62110   4.62144   4.78106
 Alpha virt. eigenvalues --    4.79223   4.89558   4.89628   4.93755   4.96521
 Alpha virt. eigenvalues --    4.98552   4.99304   4.99341   5.01669   5.06966
 Alpha virt. eigenvalues --    5.06997   5.12817   5.14502   5.14570   5.18845
 Alpha virt. eigenvalues --    5.18852   5.18965   5.25190   5.31226   5.35708
 Alpha virt. eigenvalues --    5.35744   5.40885   5.53138   5.53160   5.65146
 Alpha virt. eigenvalues --    5.65180   5.66401   5.79456   5.83734   5.86641
 Alpha virt. eigenvalues --    5.86661   5.94713   6.05057   9.67035  11.99219
 Alpha virt. eigenvalues --   13.44421  13.65388  13.65676
  Beta  occ. eigenvalues --  -10.54343 -10.53563 -10.53559 -10.53526 -10.53526
  Beta  occ. eigenvalues --   -0.99092  -0.89312  -0.69074  -0.69064  -0.61720
  Beta  occ. eigenvalues --   -0.55611  -0.54458  -0.54449  -0.43666  -0.42032
  Beta  occ. eigenvalues --   -0.40800  -0.34743  -0.34710  -0.32270
  Beta virt. eigenvalues --    0.08415   0.09388   0.09391   0.10265   0.12855
  Beta virt. eigenvalues --    0.12858   0.16321   0.17009   0.19113   0.20026
  Beta virt. eigenvalues --    0.20033   0.22824   0.25735   0.25770   0.31524
  Beta virt. eigenvalues --    0.31918   0.33864   0.33877   0.38839   0.38848
  Beta virt. eigenvalues --    0.39471   0.40139   0.40158   0.45744   0.45748
  Beta virt. eigenvalues --    0.47287   0.48876   0.48877   0.51803   0.52492
  Beta virt. eigenvalues --    0.52503   0.52555   0.52872   0.53246   0.56636
  Beta virt. eigenvalues --    0.56659   0.59009   0.72643   0.72965   0.73229
  Beta virt. eigenvalues --    0.75463   0.75499   0.83327   0.84032   0.87900
  Beta virt. eigenvalues --    0.87986   0.89079   0.93212   1.02022   1.03276
  Beta virt. eigenvalues --    1.03313   1.03386   1.04435   1.05268   1.05308
  Beta virt. eigenvalues --    1.08157   1.08223   1.08750   1.10935   1.10949
  Beta virt. eigenvalues --    1.13210   1.13221   1.14905   1.20806   1.20809
  Beta virt. eigenvalues --    1.23268   1.24594   1.24602   1.25239   1.29416
  Beta virt. eigenvalues --    1.29427   1.33947   1.35256   1.36517   1.36526
  Beta virt. eigenvalues --    1.37677   1.38231   1.46646   1.49696   1.51507
  Beta virt. eigenvalues --    1.51542   1.52359   1.54431   1.54457   1.59059
  Beta virt. eigenvalues --    1.62324   1.65414   1.65600   1.80985   1.81070
  Beta virt. eigenvalues --    1.81157   2.16001   2.24495   2.25902   2.25913
  Beta virt. eigenvalues --    2.28027   2.28040   2.31560   2.41603   2.42748
  Beta virt. eigenvalues --    2.42752   2.47771   2.48312   2.50931   2.50970
  Beta virt. eigenvalues --    2.52222   2.59189   2.64105   2.71761   2.71801
  Beta virt. eigenvalues --    2.72680   2.74376   2.76462   2.76547   2.78307
  Beta virt. eigenvalues --    2.80302   2.81733   2.82767   2.82790   2.86746
  Beta virt. eigenvalues --    2.86762   2.87513   2.95044   2.97406   2.98300
  Beta virt. eigenvalues --    2.99595   2.99603   3.02542   3.02558   3.03874
  Beta virt. eigenvalues --    3.03876   3.11459   3.11464   3.13699   3.14084
  Beta virt. eigenvalues --    3.15927   3.15938   3.16700   3.17909   3.17998
  Beta virt. eigenvalues --    3.18264   3.18296   3.25594   3.28976   3.28997
  Beta virt. eigenvalues --    3.35369   3.36824   3.36836   3.39377   3.45245
  Beta virt. eigenvalues --    3.45292   3.48481   3.50283   3.54642   3.54648
  Beta virt. eigenvalues --    3.58613   3.59012   3.60817   3.64794   3.65128
  Beta virt. eigenvalues --    3.65163   3.65721   3.66067   3.66947   3.69086
  Beta virt. eigenvalues --    3.69162   3.73133   3.80690   3.85967   3.85978
  Beta virt. eigenvalues --    3.86434   3.89120   3.90833   3.90911   3.91467
  Beta virt. eigenvalues --    3.95605   3.98612   3.99962   3.99997   4.00071
  Beta virt. eigenvalues --    4.05691   4.09355   4.09358   4.10800   4.11949
  Beta virt. eigenvalues --    4.11955   4.12477   4.15043   4.15071   4.15500
  Beta virt. eigenvalues --    4.22526   4.22558   4.22970   4.29325   4.33467
  Beta virt. eigenvalues --    4.34951   4.39594   4.41775   4.41819   4.46722
  Beta virt. eigenvalues --    4.58911   4.60955   4.62110   4.62144   4.78106
  Beta virt. eigenvalues --    4.79223   4.89558   4.89628   4.93755   4.96521
  Beta virt. eigenvalues --    4.98552   4.99304   4.99341   5.01669   5.06966
  Beta virt. eigenvalues --    5.06997   5.12817   5.14502   5.14570   5.18845
  Beta virt. eigenvalues --    5.18852   5.18965   5.25190   5.31226   5.35708
  Beta virt. eigenvalues --    5.35744   5.40885   5.53138   5.53160   5.65146
  Beta virt. eigenvalues --    5.65180   5.66401   5.79456   5.83734   5.86641
  Beta virt. eigenvalues --    5.86661   5.94713   6.05057   9.67035  11.99219
  Beta virt. eigenvalues --   13.44421  13.65388  13.65676
          Condensed to atoms (all electrons):
              1          2          3          4          5          6
     1  C    5.097299   0.220275   0.263156  -0.036760  -0.036446   0.422077
     2  C    0.220275   5.313065   0.220276   0.220280   0.220279  -0.041398
     3  C    0.263156   0.220276   5.097295  -0.036446  -0.036760  -0.025248
     4  C   -0.036760   0.220280  -0.036446   5.097297   0.263154  -0.007092
     5  C   -0.036446   0.220279  -0.036760   0.263154   5.097298   0.004779
     6  H    0.422077  -0.041398  -0.025248  -0.007092   0.004779   0.551995
     7  H    0.422005  -0.041451  -0.025177   0.004795  -0.007078  -0.034197
     8  H   -0.025248  -0.041396   0.422076   0.004779  -0.007092   0.001450
     9  H   -0.025177  -0.041449   0.422004  -0.007078   0.004794  -0.005832
    10  H   -0.007091  -0.041396   0.004779   0.422078  -0.025249   0.002241
    11  H    0.004794  -0.041448  -0.007077   0.422002  -0.025177   0.000183
    12  H   -0.007077  -0.041449   0.004794  -0.025176   0.422003   0.000180
    13  H    0.004779  -0.041394  -0.007091  -0.025249   0.422076  -0.000301
              7          8          9         10         11         12
     1  C    0.422005  -0.025248  -0.025177  -0.007091   0.004794  -0.007077
     2  C   -0.041451  -0.041396  -0.041449  -0.041396  -0.041448  -0.041449
     3  C   -0.025177   0.422076   0.422004   0.004779  -0.007077   0.004794
     4  C    0.004795   0.004779  -0.007078   0.422078   0.422002  -0.025176
     5  C   -0.007078  -0.007092   0.004794  -0.025249  -0.025177   0.422003
     6  H   -0.034197   0.001450  -0.005832   0.002241   0.000183   0.000180
     7  H    0.552072  -0.005832   0.001439   0.000183  -0.000302   0.002248
     8  H   -0.005832   0.551993  -0.034197  -0.000301   0.000180   0.000183
     9  H    0.001439  -0.034197   0.552069   0.000180   0.002248  -0.000302
    10  H    0.000183  -0.000301   0.000180   0.551988  -0.034197  -0.005832
    11  H   -0.000302   0.000180   0.002248  -0.034197   0.552070   0.001440
    12  H    0.002248   0.000183  -0.000302  -0.005832   0.001440   0.552068
    13  H    0.000180   0.002240   0.000183   0.001450  -0.005832  -0.034198
             13
     1  C    0.004779
     2  C   -0.041394
     3  C   -0.007091
     4  C   -0.025249
     5  C    0.422076
     6  H   -0.000301
     7  H    0.000180
     8  H    0.002240
     9  H    0.000183
    10  H    0.001450
    11  H   -0.005832
    12  H   -0.034198
    13  H    0.551991
 Mulliken atomic charges:
              1
     1  C   -0.296585
     2  C    0.137206
     3  C   -0.296582
     4  C   -0.296584
     5  C   -0.296583
     6  H    0.131163
     7  H    0.131116
     8  H    0.131164
     9  H    0.131118
    10  H    0.131167
    11  H    0.131117
    12  H    0.131119
    13  H    0.131165
 Sum of Mulliken atomic charges =   0.00000
 Mulliken charges with hydrogens summed into heavy atoms:
              1
     1  C   -0.034306
     2  C    0.137206
     3  C   -0.034300
     4  C   -0.034300
     5  C   -0.034300
 Sum of Mulliken charges with hydrogens summed into heavy atoms =   0.00000
          Atomic-Atomic Spin Densities.
              1          2          3          4          5          6
     1  C    0.000000   0.000000   0.000000   0.000000   0.000000   0.000000
     2  C    0.000000   0.000000   0.000000   0.000000   0.000000   0.000000
     3  C    0.000000   0.000000   0.000000   0.000000   0.000000   0.000000
     4  C    0.000000   0.000000   0.000000   0.000000   0.000000   0.000000
     5  C    0.000000   0.000000   0.000000   0.000000   0.000000   0.000000
     6  H    0.000000   0.000000   0.000000   0.000000   0.000000   0.000000
     7  H    0.000000   0.000000   0.000000   0.000000   0.000000   0.000000
     8  H    0.000000   0.000000   0.000000   0.000000   0.000000   0.000000
     9  H    0.000000   0.000000   0.000000   0.000000   0.000000   0.000000
    10  H    0.000000   0.000000   0.000000   0.000000   0.000000   0.000000
    11  H    0.000000   0.000000   0.000000   0.000000   0.000000   0.000000
    12  H    0.000000   0.000000   0.000000   0.000000   0.000000   0.000000
    13  H    0.000000   0.000000   0.000000   0.000000   0.000000   0.000000
              7          8          9         10         11         12
     1  C    0.000000   0.000000   0.000000   0.000000   0.000000   0.000000
     2  C    0.000000   0.000000   0.000000   0.000000   0.000000   0.000000
     3  C    0.000000   0.000000   0.000000   0.000000   0.000000   0.000000
     4  C    0.000000   0.000000   0.000000   0.000000   0.000000   0.000000
     5  C    0.000000   0.000000   0.000000   0.000000   0.000000   0.000000
     6  H    0.000000   0.000000   0.000000   0.000000   0.000000   0.000000
     7  H    0.000000   0.000000   0.000000   0.000000   0.000000   0.000000
     8  H    0.000000   0.000000   0.000000   0.000000   0.000000   0.000000
     9  H    0.000000   0.000000   0.000000   0.000000   0.000000   0.000000
    10  H    0.000000   0.000000   0.000000   0.000000   0.000000   0.000000
    11  H    0.000000   0.000000   0.000000   0.000000   0.000000   0.000000
    12  H    0.000000   0.000000   0.000000   0.000000   0.000000   0.000000
    13  H    0.000000   0.000000   0.000000   0.000000   0.000000   0.000000
             13
     1  C    0.000000
     2  C    0.000000
     3  C    0.000000
     4  C    0.000000
     5  C    0.000000
     6  H    0.000000
     7  H    0.000000
     8  H    0.000000
     9  H    0.000000
    10  H    0.000000
    11  H    0.000000
    12  H    0.000000
    13  H    0.000000
 Mulliken atomic spin densities:
              1
     1  C    0.000000
     2  C    0.000000
     3  C    0.000000
     4  C    0.000000
     5  C    0.000000
     6  H    0.000000
     7  H    0.000000
     8  H    0.000000
     9  H    0.000000
    10  H    0.000000
    11  H    0.000000
    12  H    0.000000
    13  H    0.000000
 Sum of Mulliken atomic spin densities =   0.00000
 Electronic spatial extent (au):  <R**2>=            389.5578
 Charge=              0.0000 electrons
 Dipole moment (field-independent basis, Debye):
    X=              0.0000    Y=              0.0000    Z=              0.0000  Tot=              0.0000
 Quadrupole moment (field-independent basis, Debye-Ang):
   XX=            -33.2975   YY=            -30.7740   ZZ=            -30.7730
   XY=              0.0000   XZ=              0.0000   YZ=              0.0000
 Traceless Quadrupole moment (field-independent basis, Debye-Ang):
   XX=             -1.6826   YY=              0.8408   ZZ=              0.8418
   XY=              0.0000   XZ=              0.0000   YZ=              0.0000
 Octapole moment (field-independent basis, Debye-Ang**2):
  XXX=             -0.0001  YYY=             -0.0001  ZZZ=              0.0001  XYY=              0.0006
  XXY=              0.0003  XXZ=             -0.0003  XZZ=             -0.0006  YZZ=              0.0000
  YYZ=              0.0000  XYZ=              0.4146
 Hexadecapole moment (field-independent basis, Debye-Ang**3):
 XXXX=           -338.8847 YYYY=           -107.4119 ZZZZ=           -107.2102 XXXY=              0.0003
 XXXZ=             -0.0003 YYYX=              0.0000 YYYZ=             -0.0112 ZZZX=             -0.0001
 ZZZY=              0.0111 XXYY=            -65.8092 XXZZ=            -65.7969 YYZZ=            -41.2041
 XXYZ=              0.0000 YYXZ=              0.0000 ZZXY=             -0.0001
 N-N= 1.721974229791D+02 E-N=-1.194013149396D+03  KE= 2.911113825336D+02
                          Isotropic Fermi Contact Couplings
        Atom                 a.u.       MegaHertz       Gauss      10(-4) cm-1
     1  C(13)              0.00000       0.00000       0.00000       0.00000
     2  C(13)              0.00000       0.00000       0.00000       0.00000
     3  C(13)              0.00000       0.00000       0.00000       0.00000
     4  C(13)              0.00000       0.00000       0.00000       0.00000
     5  C(13)              0.00000       0.00000       0.00000       0.00000
     6  H(1)               0.00000       0.00000       0.00000       0.00000
     7  H(1)               0.00000       0.00000       0.00000       0.00000
     8  H(1)               0.00000       0.00000       0.00000       0.00000
     9  H(1)               0.00000       0.00000       0.00000       0.00000
    10  H(1)               0.00000       0.00000       0.00000       0.00000
    11  H(1)               0.00000       0.00000       0.00000       0.00000
    12  H(1)               0.00000       0.00000       0.00000       0.00000
    13  H(1)               0.00000       0.00000       0.00000       0.00000
 --------------------------------------------------------
       Center         ----  Spin Dipole Couplings  ----
                      3XX-RR        3YY-RR        3ZZ-RR
 --------------------------------------------------------
     1   Atom        0.000000      0.000000      0.000000
     2   Atom        0.000000      0.000000      0.000000
     3   Atom        0.000000      0.000000      0.000000
     4   Atom        0.000000      0.000000      0.000000
     5   Atom        0.000000      0.000000      0.000000
     6   Atom        0.000000      0.000000      0.000000
     7   Atom        0.000000      0.000000      0.000000
     8   Atom        0.000000      0.000000      0.000000
     9   Atom        0.000000      0.000000      0.000000
    10   Atom        0.000000      0.000000      0.000000
    11   Atom        0.000000      0.000000      0.000000
    12   Atom        0.000000      0.000000      0.000000
    13   Atom        0.000000      0.000000      0.000000
 --------------------------------------------------------
                        XY            XZ            YZ
 --------------------------------------------------------
     1   Atom        0.000000      0.000000      0.000000
     2   Atom        0.000000      0.000000      0.000000
     3   Atom        0.000000      0.000000      0.000000
     4   Atom        0.000000      0.000000      0.000000
     5   Atom        0.000000      0.000000      0.000000
     6   Atom        0.000000      0.000000      0.000000
     7   Atom        0.000000      0.000000      0.000000
     8   Atom        0.000000      0.000000      0.000000
     9   Atom        0.000000      0.000000      0.000000
    10   Atom        0.000000      0.000000      0.000000
    11   Atom        0.000000      0.000000      0.000000
    12   Atom        0.000000      0.000000      0.000000
    13   Atom        0.000000      0.000000      0.000000
 --------------------------------------------------------


 ---------------------------------------------------------------------------------
              Anisotropic Spin Dipole Couplings in Principal Axis System
 ---------------------------------------------------------------------------------

       Atom             a.u.   MegaHertz   Gauss  10(-4) cm-1        Axes

              Baa     0.0000     0.000     0.000     0.000  1.0000  0.0000  0.0000
     1 C(13)  Bbb     0.0000     0.000     0.000     0.000  0.0000  1.0000  0.0000
              Bcc     0.0000     0.000     0.000     0.000  0.0000  0.0000  1.0000
 
              Baa     0.0000     0.000     0.000     0.000  1.0000  0.0000  0.0000
     2 C(13)  Bbb     0.0000     0.000     0.000     0.000  0.0000  1.0000  0.0000
              Bcc     0.0000     0.000     0.000     0.000  0.0000  0.0000  1.0000
 
              Baa     0.0000     0.000     0.000     0.000  1.0000  0.0000  0.0000
     3 C(13)  Bbb     0.0000     0.000     0.000     0.000  0.0000  1.0000  0.0000
              Bcc     0.0000     0.000     0.000     0.000  0.0000  0.0000  1.0000
 
              Baa     0.0000     0.000     0.000     0.000  1.0000  0.0000  0.0000
     4 C(13)  Bbb     0.0000     0.000     0.000     0.000  0.0000  1.0000  0.0000
              Bcc     0.0000     0.000     0.000     0.000  0.0000  0.0000  1.0000
 
              Baa     0.0000     0.000     0.000     0.000  1.0000  0.0000  0.0000
     5 C(13)  Bbb     0.0000     0.000     0.000     0.000  0.0000  1.0000  0.0000
              Bcc     0.0000     0.000     0.000     0.000  0.0000  0.0000  1.0000
 
              Baa     0.0000     0.000     0.000     0.000  1.0000  0.0000  0.0000
     6 H(1)   Bbb     0.0000     0.000     0.000     0.000  0.0000  1.0000  0.0000
              Bcc     0.0000     0.000     0.000     0.000  0.0000  0.0000  1.0000
 
              Baa     0.0000     0.000     0.000     0.000  1.0000  0.0000  0.0000
     7 H(1)   Bbb     0.0000     0.000     0.000     0.000  0.0000  1.0000  0.0000
              Bcc     0.0000     0.000     0.000     0.000  0.0000  0.0000  1.0000
 
              Baa     0.0000     0.000     0.000     0.000  1.0000  0.0000  0.0000
     8 H(1)   Bbb     0.0000     0.000     0.000     0.000  0.0000  1.0000  0.0000
              Bcc     0.0000     0.000     0.000     0.000  0.0000  0.0000  1.0000
 
              Baa     0.0000     0.000     0.000     0.000  1.0000  0.0000  0.0000
     9 H(1)   Bbb     0.0000     0.000     0.000     0.000  0.0000  1.0000  0.0000
              Bcc     0.0000     0.000     0.000     0.000  0.0000  0.0000  1.0000
 
              Baa     0.0000     0.000     0.000     0.000  1.0000  0.0000  0.0000
    10 H(1)   Bbb     0.0000     0.000     0.000     0.000  0.0000  1.0000  0.0000
              Bcc     0.0000     0.000     0.000     0.000  0.0000  0.0000  1.0000
 
              Baa     0.0000     0.000     0.000     0.000  1.0000  0.0000  0.0000
    11 H(1)   Bbb     0.0000     0.000     0.000     0.000  0.0000  1.0000  0.0000
              Bcc     0.0000     0.000     0.000     0.000  0.0000  0.0000  1.0000
 
              Baa     0.0000     0.000     0.000     0.000  1.0000  0.0000  0.0000
    12 H(1)   Bbb     0.0000     0.000     0.000     0.000  0.0000  1.0000  0.0000
              Bcc     0.0000     0.000     0.000     0.000  0.0000  0.0000  1.0000
 
              Baa     0.0000     0.000     0.000     0.000  1.0000  0.0000  0.0000
    13 H(1)   Bbb     0.0000     0.000     0.000     0.000  0.0000  1.0000  0.0000
              Bcc     0.0000     0.000     0.000     0.000  0.0000  0.0000  1.0000
 

 ---------------------------------------------------------------------------------

 Calling FoFJK, ICntrl=      2127 FMM=F ISym2X=0 I1Cent= 0 IOpClX= 1 NMat=1 NMatS=1 NMatT=0.
 ***** Axes restored to original set *****
 -------------------------------------------------------------------
 Center     Atomic                   Forces (Hartrees/Bohr)
 Number     Number              X              Y              Z
 -------------------------------------------------------------------
      1        6          -0.009640577    0.000699079    0.000176191
      2        6           0.000019144    0.000002371    0.000001012
      3        6          -0.009663104   -0.000218625    0.000019938
      4        6           0.009643416   -0.000004553   -0.000513423
      5        6           0.009640034   -0.000473623    0.000315256
      6        1          -0.000160812    0.001531737   -0.000358497
      7        1          -0.000240287    0.000992747    0.001229024
      8        1          -0.000228692   -0.001521048    0.000362133
      9        1          -0.000314376   -0.000978094   -0.001220320
     10        1           0.000218548    0.001233558   -0.000957622
     11        1           0.000251283   -0.000333213   -0.001540033
     12        1           0.000301035    0.000316501    0.001532080
     13        1           0.000174388   -0.001246837    0.000954259
 -------------------------------------------------------------------
 Cartesian Forces:  Max     0.009663104 RMS     0.003176677

 GradGradGradGradGradGradGradGradGradGradGradGradGradGradGradGradGradGrad
 Berny optimization.
 Internal  Forces:  Max     0.010099635 RMS     0.003183299
 Search for a local minimum.
 Step number   1 out of a maximum of   72
 All quantities printed in internal units (Hartrees-Bohrs-Radians)
 Mixed Optimization -- RFO/linear search
 Second derivative matrix not updated -- first step.
 ITU=  0
     Eigenvalues ---    0.02064   0.02101   0.02970   0.02972   0.03027
     Eigenvalues ---    0.03027   0.03027   0.03028   0.04220   0.07150
     Eigenvalues ---    0.10084   0.10145   0.10158   0.10897   0.10897
     Eigenvalues ---    0.11072   0.12187   0.16000   0.16000   0.18285
     Eigenvalues ---    0.26748   0.32805   0.32807   0.34558   0.35659
     Eigenvalues ---    0.35659   0.35659   0.35660   0.35663   0.35663
     Eigenvalues ---    0.35663   0.35663   0.35866
 RFO step:  Lambda=-2.14824165D-03 EMin= 2.06436909D-02
 Linear search not attempted -- first point.
 Iteration  1 RMS(Cart)=  0.02998660 RMS(Int)=  0.00018068
 Iteration  2 RMS(Cart)=  0.00015597 RMS(Int)=  0.00012718
 Iteration  3 RMS(Cart)=  0.00000001 RMS(Int)=  0.00012718
 Variable       Old X    -DE/DX   Delta X   Delta X   Delta X     New X
                                 (Linear)    (Quad)   (Total)
    R1        2.75371   0.01010   0.00000   0.02912   0.02921   2.78293
    R2        2.90060  -0.00594   0.00000  -0.02576  -0.02593   2.87467
    R3        2.04618  -0.00128   0.00000  -0.00355  -0.00355   2.04263
    R4        2.04612  -0.00124   0.00000  -0.00346  -0.00346   2.04266
    R5        2.75373   0.01009   0.00000   0.02911   0.02920   2.78293
    R6        2.75376   0.01009   0.00000   0.02909   0.02918   2.78293
    R7        2.75376   0.01009   0.00000   0.02909   0.02918   2.78293
    R8        2.04618  -0.00127   0.00000  -0.00355  -0.00355   2.04263
    R9        2.04612  -0.00124   0.00000  -0.00345  -0.00345   2.04266
   R10        2.90061  -0.00595   0.00000  -0.02577  -0.02594   2.87467
   R11        2.04616  -0.00127   0.00000  -0.00354  -0.00354   2.04263
   R12        2.04612  -0.00124   0.00000  -0.00346  -0.00346   2.04266
   R13        2.04611  -0.00124   0.00000  -0.00345  -0.00345   2.04266
   R14        2.04617  -0.00127   0.00000  -0.00355  -0.00355   2.04263
    A1        2.06661  -0.00066   0.00000   0.00473   0.00479   2.07140
    A2        2.06663  -0.00063   0.00000   0.00534   0.00541   2.07204
    A3        2.05281  -0.00121   0.00000  -0.00974  -0.00986   2.04296
    A4        2.05325  -0.00113   0.00000  -0.01002  -0.01013   2.04312
    A5        2.00591   0.00090   0.00000   0.00086   0.00058   2.00649
    A6        2.37763   0.00465   0.00000   0.01632   0.01619   2.39382
    A7        2.37912   0.00452   0.00000   0.01491   0.01480   2.39392
    A8        2.37914   0.00452   0.00000   0.01491   0.01480   2.39394
    A9        2.37765   0.00465   0.00000   0.01631   0.01619   2.39384
   A10        2.05280  -0.00121   0.00000  -0.00973  -0.00984   2.04296
   A11        2.05325  -0.00113   0.00000  -0.01001  -0.01012   2.04312
   A12        2.06662  -0.00066   0.00000   0.00472   0.00477   2.07139
   A13        2.06664  -0.00063   0.00000   0.00533   0.00540   2.07204
   A14        2.00591   0.00090   0.00000   0.00086   0.00059   2.00649
   A15        2.06661  -0.00066   0.00000   0.00473   0.00479   2.07140
   A16        2.06664  -0.00063   0.00000   0.00532   0.00538   2.07202
   A17        2.05282  -0.00121   0.00000  -0.00974  -0.00986   2.04296
   A18        2.05323  -0.00113   0.00000  -0.01000  -0.01012   2.04312
   A19        2.00591   0.00090   0.00000   0.00086   0.00059   2.00650
   A20        2.06663  -0.00063   0.00000   0.00532   0.00539   2.07202
   A21        2.06662  -0.00066   0.00000   0.00473   0.00479   2.07140
   A22        2.05325  -0.00113   0.00000  -0.01001  -0.01012   2.04313
   A23        2.05281  -0.00121   0.00000  -0.00974  -0.00985   2.04295
   A24        2.00591   0.00090   0.00000   0.00087   0.00059   2.00650
    D1        0.41659   0.00083   0.00000   0.01259   0.01257   0.42916
    D2        2.14907  -0.00133   0.00000   0.00524   0.00538   2.15445
    D3       -2.14671   0.00125   0.00000  -0.00757  -0.00771  -2.15442
    D4       -0.41422  -0.00091   0.00000  -0.01492  -0.01491  -0.42913
    D5       -2.51648   0.00201   0.00000   0.02940   0.02916  -2.48733
    D6        0.00017  -0.00001   0.00000  -0.00088  -0.00087  -0.00071
    D7        0.00020  -0.00001   0.00000  -0.00092  -0.00091  -0.00071
    D8        2.51685  -0.00203   0.00000  -0.03120  -0.03094   2.48591
    D9        2.14913  -0.00133   0.00000   0.00521   0.00535   2.15448
   D10       -0.41421  -0.00091   0.00000  -0.01491  -0.01489  -0.42910
   D11        0.41659   0.00083   0.00000   0.01257   0.01255   0.42914
   D12       -2.14675   0.00125   0.00000  -0.00754  -0.00769  -2.15444
   D13        0.41654   0.00083   0.00000   0.01261   0.01259   0.42913
   D14       -2.14678   0.00125   0.00000  -0.00752  -0.00767  -2.15444
   D15        2.14907  -0.00133   0.00000   0.00523   0.00537   2.15445
   D16       -0.41425  -0.00091   0.00000  -0.01490  -0.01488  -0.42913
   D17       -0.41418  -0.00091   0.00000  -0.01491  -0.01490  -0.42908
   D18        2.14913  -0.00133   0.00000   0.00522   0.00536   2.15449
   D19       -2.14672   0.00125   0.00000  -0.00754  -0.00768  -2.15440
   D20        0.41659   0.00083   0.00000   0.01260   0.01258   0.42917
   D21        0.00018  -0.00001   0.00000  -0.00086  -0.00086  -0.00068
   D22       -2.51649   0.00201   0.00000   0.02943   0.02918  -2.48731
   D23        2.51684  -0.00203   0.00000  -0.03114  -0.03089   2.48595
   D24        0.00018  -0.00001   0.00000  -0.00086  -0.00085  -0.00068
         Item               Value     Threshold  Converged?
 Maximum Force            0.010100     0.000450     NO 
 RMS     Force            0.003183     0.000300     NO 
 Maximum Displacement     0.071719     0.001800     NO 
 RMS     Displacement     0.029965     0.001200     NO 
 Predicted change in Energy=-1.080622D-03
 GradGradGradGradGradGradGradGradGradGradGradGradGradGradGradGradGradGrad

                          Input orientation:                          
 ---------------------------------------------------------------------
 Center     Atomic      Atomic             Coordinates (Angstroms)
 Number     Number       Type             X           Y           Z
 ---------------------------------------------------------------------
      1          6           0       -1.281199   -0.721112   -0.256715
      2          6           0       -0.000001   -0.036422   -0.014921
      3          6           0       -1.239945    0.711581    0.252962
      4          6           0        1.261584   -0.323152    0.688595
      5          6           0        1.259565    0.186958   -0.744536
      6          1           0       -1.602531   -1.481922    0.440627
      7          1           0       -1.605589   -0.871016   -1.276867
      8          1           0       -1.537038    1.487921   -0.437982
      9          1           0       -1.535232    0.877048    1.279526
     10          1           0        1.546718   -1.354281    0.843000
     11          1           0        1.596785    0.362406    1.454142
     12          1           0        1.544002   -0.514165   -1.516504
     13          1           0        1.592872    1.202546   -0.905337
 ---------------------------------------------------------------------
                    Distance matrix (angstroms):
                    1          2          3          4          5
     1  C    0.000000
     2  C    1.472662   0.000000
     3  C    1.521210   1.472661   0.000000
     4  C    2.741847   1.472666   2.741914   0.000000
     5  C    2.741905   1.472666   2.741858   1.521211   0.000000
     6  H    1.080913   2.205697   2.231175   3.099579   3.518717
     7  H    1.080930   2.206120   2.231296   3.519073   3.100289
     8  H    2.231174   2.205694   1.080913   3.518728   3.099592
     9  H    2.231296   2.206118   1.080929   3.100300   3.519083
    10  H    3.099579   2.205702   3.518724   1.080911   2.231176
    11  H    3.519068   2.206113   3.100290   1.080931   2.231296
    12  H    3.100267   2.206113   3.519066   2.231302   1.080931
    13  H    3.518729   2.205703   3.099606   2.231172   1.080911
                    6          7          8          9         10
     6  H    0.000000
     7  H    1.822910   0.000000
     8  H    3.097775   2.504598   0.000000
     9  H    2.504600   3.097712   1.822911   0.000000
    10  H    3.177415   3.829415   4.385040   3.829856   0.000000
    11  H    3.829411   4.385765   3.829852   3.178818   1.822914
    12  H    3.829829   3.178787   3.829408   4.385766   2.504608
    13  H    4.385041   3.829862   3.177451   3.829440   3.097769
                   11         12         13
    11  H    0.000000
    12  H    3.097725   0.000000
    13  H    2.504594   1.822913   0.000000
 Stoichiometry    C5H8
 Framework group  C1[X(C5H8)]
 Deg. of freedom    33
 Full point group                 C1      NOp   1
 Largest Abelian subgroup         C1      NOp   1
 Largest concise Abelian subgroup C1      NOp   1
                         Standard orientation:                         
 ---------------------------------------------------------------------
 Center     Atomic      Atomic             Coordinates (Angstroms)
 Number     Number       Type             X           Y           Z
 ---------------------------------------------------------------------
      1          6           0        1.261031   -0.537336    0.538325
      2          6           0        0.000001    0.000006   -0.000005
      3          6           0        1.261044    0.537333   -0.538321
      4          6           0       -1.261039   -0.538396   -0.537262
      5          6           0       -1.261040    0.538396    0.537261
      6          1           0        1.570355   -1.529828    0.242265
      7          1           0        1.570982   -0.239769    1.530189
      8          1           0        1.570374    1.529821   -0.242256
      9          1           0        1.570999    0.239763   -1.530182
     10          1           0       -1.570364   -1.530300   -0.239245
     11          1           0       -1.570981   -0.242780   -1.529713
     12          1           0       -1.570965    0.242785    1.529719
     13          1           0       -1.570384    1.530293    0.239241
 ---------------------------------------------------------------------
 Rotational constants (GHZ):     10.7273636      4.2194523      4.2192361
 Standard basis: CC-pVTZ (5D, 7F)
 There are   262 symmetry adapted basis functions of A   symmetry.
 Integral buffers will be    131072 words long.
 Raffenetti 2 integral format.
 Two-electron integral symmetry is turned on.
   262 basis functions,   396 primitive gaussians,   295 cartesian basis functions
    19 alpha electrons       19 beta electrons
       nuclear repulsion energy       171.3357309208 Hartrees.
 NAtoms=   13 NActive=   13 NUniq=   13 SFac= 1.00D+00 NAtFMM=   60 NAOKFM=F Big=F
 One-electron integrals computed using PRISM.
 NBasis=   262 RedAO= T  NBF=   262
 NBsUse=   262 1.00D-06 NBFU=   262
 Initial guess read from the read-write file.
 B after Tr=     0.000000    0.000000    0.000000
         Rot=    1.000000    0.000000    0.000000    0.000000 Ang=   0.00 deg.
 Initial guess orbital symmetries:
 Alpha Orbitals:
       Occupied  (A) (A) (A) (A) (A) (A) (A) (A) (A) (A) (A) (A)
                 (A) (A) (A) (A) (A) (A) (A)
       Virtual   (A) (A) (A) (A) (A) (A) (A) (A) (A) (A) (A) (A)
                 (A) (A) (A) (A) (A) (A) (A) (A) (A) (A) (A) (A)
                 (A) (A) (A) (A) (A) (A) (A) (A) (A) (A) (A) (A)
                 (A) (A) (A) (A) (A) (A) (A) (A) (A) (A) (A) (A)
                 (A) (A) (A) (A) (A) (A) (A) (A) (A) (A) (A) (A)
                 (A) (A) (A) (A) (A) (A) (A) (A) (A) (A) (A) (A)
                 (A) (A) (A) (A) (A) (A) (A) (A) (A) (A) (A) (A)
                 (A) (A) (A) (A) (A) (A) (A) (A) (A) (A) (A) (A)
                 (A) (A) (A) (A) (A) (A) (A) (A) (A) (A) (A) (A)
                 (A) (A) (A) (A) (A) (A) (A) (A) (A) (A) (A) (A)
                 (A) (A) (A) (A) (A) (A) (A) (A) (A) (A) (A) (A)
                 (A) (A) (A) (A) (A) (A) (A) (A) (A) (A) (A) (A)
                 (A) (A) (A) (A) (A) (A) (A) (A) (A) (A) (A) (A)
                 (A) (A) (A) (A) (A) (A) (A) (A) (A) (A) (A) (A)
                 (A) (A) (A) (A) (A) (A) (A) (A) (A) (A) (A) (A)
                 (A) (A) (A) (A) (A) (A) (A) (A) (A) (A) (A) (A)
                 (A) (A) (A) (A) (A) (A) (A) (A) (A) (A) (A) (A)
                 (A) (A) (A) (A) (A) (A) (A) (A) (A) (A) (A) (A)
                 (A) (A) (A) (A) (A) (A) (A) (A) (A) (A) (A) (A)
                 (A) (A) (A) (A) (A) (A) (A) (A) (A) (A) (A) (A)
                 (A) (A) (A)
 Beta  Orbitals:
       Occupied  (A) (A) (A) (A) (A) (A) (A) (A) (A) (A) (A) (A)
                 (A) (A) (A) (A) (A) (A) (A)
       Virtual   (A) (A) (A) (A) (A) (A) (A) (A) (A) (A) (A) (A)
                 (A) (A) (A) (A) (A) (A) (A) (A) (A) (A) (A) (A)
                 (A) (A) (A) (A) (A) (A) (A) (A) (A) (A) (A) (A)
                 (A) (A) (A) (A) (A) (A) (A) (A) (A) (A) (A) (A)
                 (A) (A) (A) (A) (A) (A) (A) (A) (A) (A) (A) (A)
                 (A) (A) (A) (A) (A) (A) (A) (A) (A) (A) (A) (A)
                 (A) (A) (A) (A) (A) (A) (A) (A) (A) (A) (A) (A)
                 (A) (A) (A) (A) (A) (A) (A) (A) (A) (A) (A) (A)
                 (A) (A) (A) (A) (A) (A) (A) (A) (A) (A) (A) (A)
                 (A) (A) (A) (A) (A) (A) (A) (A) (A) (A) (A) (A)
                 (A) (A) (A) (A) (A) (A) (A) (A) (A) (A) (A) (A)
                 (A) (A) (A) (A) (A) (A) (A) (A) (A) (A) (A) (A)
                 (A) (A) (A) (A) (A) (A) (A) (A) (A) (A) (A) (A)
                 (A) (A) (A) (A) (A) (A) (A) (A) (A) (A) (A) (A)
                 (A) (A) (A) (A) (A) (A) (A) (A) (A) (A) (A) (A)
                 (A) (A) (A) (A) (A) (A) (A) (A) (A) (A) (A) (A)
                 (A) (A) (A) (A) (A) (A) (A) (A) (A) (A) (A) (A)
                 (A) (A) (A) (A) (A) (A) (A) (A) (A) (A) (A) (A)
                 (A) (A) (A) (A) (A) (A) (A) (A) (A) (A) (A) (A)
                 (A) (A) (A) (A) (A) (A) (A) (A) (A) (A) (A) (A)
                 (A) (A) (A)
 Initial guess <Sx>= 0.0000 <Sy>= 0.0000 <Sz>= 0.0000 <S**2>= 0.0000 S= 0.0000
 Harris functional with IExCor= 1009 diagonalized for initial guess.
 ExpMin= 1.03D-01 ExpMax= 8.24D+03 ExpMxC= 2.81D+02 IAcc=1 IRadAn=         1 AccDes= 0.00D+00
 HarFok:  IExCor= 1009 AccDes= 0.00D+00 IRadAn=         1 IDoV= 1
 ScaDFX=  1.000000  1.000000  1.000000  1.000000
 FoFCou: FMM=F IPFlag=           0 FMFlag=      100000 FMFlg1=           0
         NFxFlg=           0 DoJE=T BraDBF=F KetDBF=T FulRan=T
         Omega=  0.000000  0.000000  1.000000  0.000000  0.000000 ICntrl=     500 IOpCl=  0
         NMat0=    1 NMatS0=    1 NMatT0=    0 NMatD0=    1 NMtDS0=    0 NMtDT0=    0
         I1Cent=           4 NGrid=           0.
 Petite list used in FoFCou.
 Requested convergence on RMS density matrix=1.00D-08 within 128 cycles.
 Requested convergence on MAX density matrix=1.00D-06.
 Requested convergence on             energy=1.00D-06.
 No special actions if energy rises.
 Integral accuracy reduced to 1.0D-05 until final iterations.
 Initial convergence to 1.0D-05 achieved.  Increase integral accuracy.
 SCF Done:  E(UM062X) =  -195.251060428     A.U. after   11 cycles
             Convg  =    0.4518D-08             -V/T =  2.0063
 <Sx>= 0.0000 <Sy>= 0.0000 <Sz>= 0.0000 <S**2>= 0.0000 S= 0.0000
 <L.S>= 0.000000000000E+00
 Annihilation of the first spin contaminant:
 S**2 before annihilation     0.0000,   after     0.0000
 Calling FoFJK, ICntrl=      2127 FMM=F ISym2X=0 I1Cent= 0 IOpClX= 1 NMat=1 NMatS=1 NMatT=0.
 ***** Axes restored to original set *****
 -------------------------------------------------------------------
 Center     Atomic                   Forces (Hartrees/Bohr)
 Number     Number              X              Y              Z
 -------------------------------------------------------------------
      1        6          -0.001904857    0.000511812    0.000204392
      2        6           0.000003236   -0.000001292   -0.000000307
      3        6          -0.001931256   -0.000415139   -0.000164741
      4        6           0.001914373    0.000101262   -0.000498012
      5        6           0.001916884   -0.000196897    0.000458205
      6        1           0.000711841   -0.000324431   -0.000001802
      7        1           0.000753952   -0.000246402   -0.000200831
      8        1           0.000726875    0.000288506   -0.000013008
      9        1           0.000769138    0.000208298    0.000185187
     10        1          -0.000721138   -0.000179661    0.000242224
     11        1          -0.000758184    0.000025198    0.000305970
     12        1          -0.000764613    0.000012872   -0.000289857
     13        1          -0.000716251    0.000215873   -0.000227419
 -------------------------------------------------------------------
 Cartesian Forces:  Max     0.001931256 RMS     0.000730830

 GradGradGradGradGradGradGradGradGradGradGradGradGradGradGradGradGradGrad
 Berny optimization.
 Using GEDIIS/GDIIS optimizer.
 Internal  Forces:  Max     0.000789933 RMS     0.000299205
 Search for a local minimum.
 Step number   2 out of a maximum of   72
 All quantities printed in internal units (Hartrees-Bohrs-Radians)
 Mixed Optimization -- En-DIIS/RFO-DIIS
 Update second derivatives using D2CorX and points    1    2
 DE= -1.00D-03 DEPred=-1.08D-03 R= 9.25D-01
 SS=  1.41D+00  RLast= 1.11D-01 DXNew= 5.0454D-01 3.3285D-01
 Trust test= 9.25D-01 RLast= 1.11D-01 DXMaxT set to 3.33D-01
 ITU=  1  0
 Use linear search instead of GDIIS.
     Eigenvalues ---    0.02101   0.02144   0.02954   0.02955   0.03100
     Eigenvalues ---    0.03100   0.03100   0.03590   0.04132   0.07057
     Eigenvalues ---    0.10025   0.10026   0.10104   0.10820   0.10820
     Eigenvalues ---    0.11032   0.12152   0.16000   0.16000   0.18238
     Eigenvalues ---    0.26111   0.32732   0.32734   0.33918   0.34632
     Eigenvalues ---    0.35659   0.35659   0.35660   0.35662   0.35663
     Eigenvalues ---    0.35663   0.35663   0.35676
 RFO step:  Lambda=-1.34450279D-04 EMin= 2.10093488D-02
 Quartic linear search produced a step of -0.06240.
 Iteration  1 RMS(Cart)=  0.00668054 RMS(Int)=  0.00006251
 Iteration  2 RMS(Cart)=  0.00004234 RMS(Int)=  0.00004597
 Iteration  3 RMS(Cart)=  0.00000000 RMS(Int)=  0.00004597
 Variable       Old X    -DE/DX   Delta X   Delta X   Delta X     New X
                                 (Linear)    (Quad)   (Total)
    R1        2.78293   0.00031  -0.00182   0.00446   0.00265   2.78557
    R2        2.87467   0.00019   0.00162  -0.00261  -0.00100   2.87367
    R3        2.04263   0.00002   0.00022  -0.00041  -0.00019   2.04244
    R4        2.04266   0.00000   0.00022  -0.00045  -0.00023   2.04243
    R5        2.78293   0.00031  -0.00182   0.00446   0.00265   2.78557
    R6        2.78293   0.00031  -0.00182   0.00446   0.00264   2.78558
    R7        2.78293   0.00031  -0.00182   0.00446   0.00264   2.78557
    R8        2.04263   0.00002   0.00022  -0.00041  -0.00019   2.04244
    R9        2.04266   0.00000   0.00022  -0.00045  -0.00023   2.04243
   R10        2.87467   0.00019   0.00162  -0.00261  -0.00100   2.87367
   R11        2.04263   0.00002   0.00022  -0.00041  -0.00019   2.04244
   R12        2.04266   0.00000   0.00022  -0.00045  -0.00023   2.04243
   R13        2.04266   0.00000   0.00022  -0.00045  -0.00023   2.04243
   R14        2.04263   0.00002   0.00022  -0.00041  -0.00019   2.04244
    A1        2.07140  -0.00026  -0.00030  -0.00602  -0.00636   2.06504
    A2        2.07204  -0.00027  -0.00034  -0.00636  -0.00674   2.06530
    A3        2.04296   0.00017   0.00061   0.00480   0.00540   2.04836
    A4        2.04312   0.00016   0.00063   0.00486   0.00547   2.04859
    A5        2.00649   0.00016  -0.00004   0.00212   0.00194   2.00844
    A6        2.39382   0.00003  -0.00101   0.00203   0.00103   2.39485
    A7        2.39392   0.00004  -0.00092   0.00191   0.00100   2.39493
    A8        2.39394   0.00004  -0.00092   0.00191   0.00100   2.39494
    A9        2.39384   0.00003  -0.00101   0.00202   0.00103   2.39487
   A10        2.04296   0.00017   0.00061   0.00481   0.00540   2.04836
   A11        2.04312   0.00016   0.00063   0.00486   0.00547   2.04860
   A12        2.07139  -0.00026  -0.00030  -0.00602  -0.00636   2.06503
   A13        2.07204  -0.00027  -0.00034  -0.00636  -0.00674   2.06530
   A14        2.00649   0.00016  -0.00004   0.00212   0.00194   2.00844
   A15        2.07140  -0.00026  -0.00030  -0.00601  -0.00635   2.06505
   A16        2.07202  -0.00027  -0.00034  -0.00636  -0.00674   2.06528
   A17        2.04296   0.00017   0.00062   0.00481   0.00540   2.04836
   A18        2.04312   0.00016   0.00063   0.00486   0.00547   2.04859
   A19        2.00650   0.00016  -0.00004   0.00211   0.00194   2.00844
   A20        2.07202  -0.00027  -0.00034  -0.00636  -0.00674   2.06528
   A21        2.07140  -0.00026  -0.00030  -0.00601  -0.00635   2.06505
   A22        2.04313   0.00016   0.00063   0.00486   0.00547   2.04860
   A23        2.04295   0.00017   0.00061   0.00481   0.00540   2.04836
   A24        2.00650   0.00016  -0.00004   0.00211   0.00194   2.00844
    D1        0.42916  -0.00032  -0.00078  -0.00898  -0.00972   0.41944
    D2        2.15445  -0.00034  -0.00034  -0.00988  -0.01018   2.14427
    D3       -2.15442   0.00035   0.00048   0.00997   0.01042  -2.14400
    D4       -0.42913   0.00033   0.00093   0.00907   0.00996  -0.41917
    D5       -2.48733  -0.00076  -0.00182  -0.01806  -0.01994  -2.50727
    D6       -0.00071   0.00001   0.00005   0.00044   0.00050  -0.00021
    D7       -0.00071   0.00001   0.00006   0.00044   0.00050  -0.00021
    D8        2.48591   0.00079   0.00193   0.01895   0.02094   2.50685
    D9        2.15448  -0.00034  -0.00033  -0.00988  -0.01019   2.14429
   D10       -0.42910   0.00033   0.00093   0.00907   0.00995  -0.41915
   D11        0.42914  -0.00032  -0.00078  -0.00898  -0.00972   0.41942
   D12       -2.15444   0.00035   0.00048   0.00997   0.01042  -2.14402
   D13        0.42913  -0.00032  -0.00079  -0.00897  -0.00971   0.41942
   D14       -2.15444   0.00035   0.00048   0.00997   0.01042  -2.14402
   D15        2.15445  -0.00034  -0.00034  -0.00987  -0.01018   2.14426
   D16       -0.42913   0.00033   0.00093   0.00907   0.00996  -0.41917
   D17       -0.42908   0.00033   0.00093   0.00906   0.00995  -0.41913
   D18        2.15449  -0.00034  -0.00033  -0.00988  -0.01019   2.14430
   D19       -2.15440   0.00035   0.00048   0.00996   0.01041  -2.14399
   D20        0.42917  -0.00032  -0.00078  -0.00898  -0.00972   0.41945
   D21       -0.00068   0.00001   0.00005   0.00045   0.00051  -0.00017
   D22       -2.48731  -0.00076  -0.00182  -0.01805  -0.01993  -2.50724
   D23        2.48595   0.00079   0.00193   0.01895   0.02094   2.50689
   D24       -0.00068   0.00001   0.00005   0.00045   0.00051  -0.00017
         Item               Value     Threshold  Converged?
 Maximum Force            0.000790     0.000450     NO 
 RMS     Force            0.000299     0.000300     YES
 Maximum Displacement     0.016583     0.001800     NO 
 RMS     Displacement     0.006675     0.001200     NO 
 Predicted change in Energy=-7.147887D-05
 GradGradGradGradGradGradGradGradGradGradGradGradGradGradGradGradGradGrad

                          Input orientation:                          
 ---------------------------------------------------------------------
 Center     Atomic      Atomic             Coordinates (Angstroms)
 Number     Number       Type             X           Y           Z
 ---------------------------------------------------------------------
      1          6           0       -1.282986   -0.720813   -0.256621
      2          6           0        0.000000   -0.036424   -0.014922
      3          6           0       -1.241745    0.711372    0.252905
      4          6           0        1.263374   -0.323096    0.688331
      5          6           0        1.261356    0.186812   -0.744309
      6          1           0       -1.594496   -1.486872    0.439275
      7          1           0       -1.597085   -0.875688   -1.279119
      8          1           0       -1.528735    1.492462   -0.436798
      9          1           0       -1.526457    0.881286    1.281600
     10          1           0        1.538552   -1.356090    0.847565
     11          1           0        1.588162    0.361485    1.459051
     12          1           0        1.535341   -0.512810   -1.521233
     13          1           0        1.584709    1.204766   -0.909734
 ---------------------------------------------------------------------
                    Distance matrix (angstroms):
                    1          2          3          4          5
     1  C    0.000000
     2  C    1.474063   0.000000
     3  C    1.520681   1.474062   0.000000
     4  C    2.745008   1.474063   2.745058   0.000000
     5  C    2.745050   1.474063   2.745016   1.520681   0.000000
     6  H    1.080813   2.202841   2.234154   3.095775   3.515392
     7  H    1.080807   2.203006   2.234305   3.515458   3.096064
     8  H    2.234154   2.202840   1.080813   3.515401   3.095787
     9  H    2.234306   2.203005   1.080808   3.096072   3.515466
    10  H    3.095785   2.202849   3.515404   1.080811   2.234155
    11  H    3.515451   2.202995   3.096059   1.080809   2.234303
    12  H    3.096042   2.202996   3.515450   2.234307   1.080809
    13  H    3.515407   2.202849   3.095805   2.234151   1.080811
                    6          7          8          9         10
     6  H    0.000000
     7  H    1.823850   0.000000
     8  H    3.106165   2.514420   0.000000
     9  H    2.514421   3.106320   1.823851   0.000000
    10  H    3.162245   3.819135   4.378594   3.819492   0.000000
    11  H    3.819120   4.378809   3.819477   3.162679   1.823853
    12  H    3.819459   3.162656   3.819120   4.378810   2.514425
    13  H    4.378594   3.819495   3.162273   3.819154   3.106157
                   11         12         13
    11  H    0.000000
    12  H    3.106328   0.000000
    13  H    2.514414   1.823852   0.000000
 Stoichiometry    C5H8
 Framework group  C1[X(C5H8)]
 Deg. of freedom    33
 Full point group                 C1      NOp   1
 Largest Abelian subgroup         C1      NOp   1
 Largest concise Abelian subgroup C1      NOp   1
                         Standard orientation:                         
 ---------------------------------------------------------------------
 Center     Atomic      Atomic             Coordinates (Angstroms)
 Number     Number       Type             X           Y           Z
 ---------------------------------------------------------------------
      1          6           0        1.262826   -0.540318    0.534956
      2          6           0        0.000000    0.000005   -0.000004
      3          6           0        1.262836    0.540315   -0.534953
      4          6           0       -1.262831   -0.535008   -0.540263
      5          6           0       -1.262832    0.535008    0.540262
      6          1           0        1.562184   -1.534995    0.236361
      7          1           0        1.562340   -0.251945    1.532592
      8          1           0        1.562199    1.534989   -0.236355
      9          1           0        1.562354    0.251940   -1.532587
     10          1           0       -1.562200   -1.532581   -0.251507
     11          1           0       -1.562334   -0.236791   -1.535005
     12          1           0       -1.562323    0.236794    1.535009
     13          1           0       -1.562214    1.532576    0.251504
 ---------------------------------------------------------------------
 Rotational constants (GHZ):     10.7076058      4.2177052      4.2175826
 Standard basis: CC-pVTZ (5D, 7F)
 There are   262 symmetry adapted basis functions of A   symmetry.
 Integral buffers will be    131072 words long.
 Raffenetti 2 integral format.
 Two-electron integral symmetry is turned on.
   262 basis functions,   396 primitive gaussians,   295 cartesian basis functions
    19 alpha electrons       19 beta electrons
       nuclear repulsion energy       171.2852069715 Hartrees.
 NAtoms=   13 NActive=   13 NUniq=   13 SFac= 1.00D+00 NAtFMM=   60 NAOKFM=F Big=F
 One-electron integrals computed using PRISM.
 NBasis=   262 RedAO= T  NBF=   262
 NBsUse=   262 1.00D-06 NBFU=   262
 Initial guess read from the read-write file.
 B after Tr=     0.000000    0.000000    0.000000
         Rot=    1.000000    0.000000    0.000000    0.000000 Ang=   0.00 deg.
 Initial guess orbital symmetries:
 Alpha Orbitals:
       Occupied  (A) (A) (A) (A) (A) (A) (A) (A) (A) (A) (A) (A)
                 (A) (A) (A) (A) (A) (A) (A)
       Virtual   (A) (A) (A) (A) (A) (A) (A) (A) (A) (A) (A) (A)
                 (A) (A) (A) (A) (A) (A) (A) (A) (A) (A) (A) (A)
                 (A) (A) (A) (A) (A) (A) (A) (A) (A) (A) (A) (A)
                 (A) (A) (A) (A) (A) (A) (A) (A) (A) (A) (A) (A)
                 (A) (A) (A) (A) (A) (A) (A) (A) (A) (A) (A) (A)
                 (A) (A) (A) (A) (A) (A) (A) (A) (A) (A) (A) (A)
                 (A) (A) (A) (A) (A) (A) (A) (A) (A) (A) (A) (A)
                 (A) (A) (A) (A) (A) (A) (A) (A) (A) (A) (A) (A)
                 (A) (A) (A) (A) (A) (A) (A) (A) (A) (A) (A) (A)
                 (A) (A) (A) (A) (A) (A) (A) (A) (A) (A) (A) (A)
                 (A) (A) (A) (A) (A) (A) (A) (A) (A) (A) (A) (A)
                 (A) (A) (A) (A) (A) (A) (A) (A) (A) (A) (A) (A)
                 (A) (A) (A) (A) (A) (A) (A) (A) (A) (A) (A) (A)
                 (A) (A) (A) (A) (A) (A) (A) (A) (A) (A) (A) (A)
                 (A) (A) (A) (A) (A) (A) (A) (A) (A) (A) (A) (A)
                 (A) (A) (A) (A) (A) (A) (A) (A) (A) (A) (A) (A)
                 (A) (A) (A) (A) (A) (A) (A) (A) (A) (A) (A) (A)
                 (A) (A) (A) (A) (A) (A) (A) (A) (A) (A) (A) (A)
                 (A) (A) (A) (A) (A) (A) (A) (A) (A) (A) (A) (A)
                 (A) (A) (A) (A) (A) (A) (A) (A) (A) (A) (A) (A)
                 (A) (A) (A)
 Beta  Orbitals:
       Occupied  (A) (A) (A) (A) (A) (A) (A) (A) (A) (A) (A) (A)
                 (A) (A) (A) (A) (A) (A) (A)
       Virtual   (A) (A) (A) (A) (A) (A) (A) (A) (A) (A) (A) (A)
                 (A) (A) (A) (A) (A) (A) (A) (A) (A) (A) (A) (A)
                 (A) (A) (A) (A) (A) (A) (A) (A) (A) (A) (A) (A)
                 (A) (A) (A) (A) (A) (A) (A) (A) (A) (A) (A) (A)
                 (A) (A) (A) (A) (A) (A) (A) (A) (A) (A) (A) (A)
                 (A) (A) (A) (A) (A) (A) (A) (A) (A) (A) (A) (A)
                 (A) (A) (A) (A) (A) (A) (A) (A) (A) (A) (A) (A)
                 (A) (A) (A) (A) (A) (A) (A) (A) (A) (A) (A) (A)
                 (A) (A) (A) (A) (A) (A) (A) (A) (A) (A) (A) (A)
                 (A) (A) (A) (A) (A) (A) (A) (A) (A) (A) (A) (A)
                 (A) (A) (A) (A) (A) (A) (A) (A) (A) (A) (A) (A)
                 (A) (A) (A) (A) (A) (A) (A) (A) (A) (A) (A) (A)
                 (A) (A) (A) (A) (A) (A) (A) (A) (A) (A) (A) (A)
                 (A) (A) (A) (A) (A) (A) (A) (A) (A) (A) (A) (A)
                 (A) (A) (A) (A) (A) (A) (A) (A) (A) (A) (A) (A)
                 (A) (A) (A) (A) (A) (A) (A) (A) (A) (A) (A) (A)
                 (A) (A) (A) (A) (A) (A) (A) (A) (A) (A) (A) (A)
                 (A) (A) (A) (A) (A) (A) (A) (A) (A) (A) (A) (A)
                 (A) (A) (A) (A) (A) (A) (A) (A) (A) (A) (A) (A)
                 (A) (A) (A) (A) (A) (A) (A) (A) (A) (A) (A) (A)
                 (A) (A) (A)
 Initial guess <Sx>= 0.0000 <Sy>= 0.0000 <Sz>= 0.0000 <S**2>= 0.0000 S= 0.0000
 Requested convergence on RMS density matrix=1.00D-08 within 128 cycles.
 Requested convergence on MAX density matrix=1.00D-06.
 Requested convergence on             energy=1.00D-06.
 No special actions if energy rises.
 SCF Done:  E(UM062X) =  -195.251131549     A.U. after    8 cycles
[...]
    D2        2.14427  -0.00002   0.00000  -0.00040  -0.00040   2.14387
    D3       -2.14400   0.00002   0.00000   0.00014   0.00014  -2.14386
    D4       -0.41917  -0.00001   0.00000   0.00002   0.00002  -0.41915
    D5       -2.50727   0.00002   0.00000   0.00026   0.00026  -2.50702
    D6       -0.00021   0.00000   0.00000   0.00033   0.00033   0.00012
    D7       -0.00021   0.00000   0.00000   0.00034   0.00034   0.00012
    D8        2.50685  -0.00001   0.00000   0.00041   0.00041   2.50726
    D9        2.14429  -0.00002   0.00000  -0.00042  -0.00042   2.14387
   D10       -0.41915  -0.00001   0.00000  -0.00001  -0.00001  -0.41915
   D11        0.41942   0.00001   0.00000  -0.00026  -0.00026   0.41916
   D12       -2.14402   0.00002   0.00000   0.00015   0.00015  -2.14386
   D13        0.41942   0.00001   0.00000  -0.00027  -0.00027   0.41915
   D14       -2.14402   0.00001   0.00000   0.00015   0.00015  -2.14387
   D15        2.14426  -0.00002   0.00000  -0.00041  -0.00041   2.14386
   D16       -0.41917  -0.00001   0.00000   0.00001   0.00001  -0.41916
   D17       -0.41913  -0.00001   0.00000  -0.00003  -0.00003  -0.41916
   D18        2.14430  -0.00002   0.00000  -0.00044  -0.00044   2.14386
   D19       -2.14399   0.00001   0.00000   0.00011   0.00011  -2.14387
   D20        0.41945   0.00001   0.00000  -0.00030  -0.00030   0.41915
   D21       -0.00017   0.00000   0.00000   0.00006   0.00006  -0.00011
   D22       -2.50724   0.00001   0.00000  -0.00001  -0.00001  -2.50725
   D23        2.50689  -0.00001   0.00000   0.00013   0.00013   2.50702
   D24       -0.00017   0.00000   0.00000   0.00006   0.00006  -0.00011
         Item               Value     Threshold  Converged?
 Maximum Force            0.000327     0.000450     YES
 RMS     Force            0.000077     0.000300     YES
 Maximum Displacement     0.000880     0.001800     YES
 RMS     Displacement     0.000305     0.001200     YES
 Predicted change in Energy=-7.158982D-07
 Optimization completed.
    -- Stationary point found.
                           ----------------------------
                           !   Optimized Parameters   !
                           ! (Angstroms and Degrees)  !
 --------------------------                            --------------------------
 ! Name  Definition              Value          Derivative Info.                !
 --------------------------------------------------------------------------------
 ! R1    R(1,2)                  1.4741         -DE/DX =   -0.0001              !
 ! R2    R(1,3)                  1.5207         -DE/DX =   -0.0003              !
 ! R3    R(1,6)                  1.0808         -DE/DX =    0.0001              !
 ! R4    R(1,7)                  1.0808         -DE/DX =    0.0001              !
 ! R5    R(2,3)                  1.4741         -DE/DX =   -0.0001              !
 ! R6    R(2,4)                  1.4741         -DE/DX =   -0.0001              !
 ! R7    R(2,5)                  1.4741         -DE/DX =   -0.0001              !
 ! R8    R(3,8)                  1.0808         -DE/DX =    0.0001              !
 ! R9    R(3,9)                  1.0808         -DE/DX =    0.0001              !
 ! R10   R(4,5)                  1.5207         -DE/DX =   -0.0003              !
 ! R11   R(4,10)                 1.0808         -DE/DX =    0.0001              !
 ! R12   R(4,11)                 1.0808         -DE/DX =    0.0001              !
 ! R13   R(5,12)                 1.0808         -DE/DX =    0.0001              !
 ! R14   R(5,13)                 1.0808         -DE/DX =    0.0001              !
 ! A1    A(2,1,6)              118.3178         -DE/DX =    0.0                 !
 ! A2    A(2,1,7)              118.333          -DE/DX =    0.0                 !
 ! A3    A(3,1,6)              117.3622         -DE/DX =    0.0                 !
 ! A4    A(3,1,7)              117.3758         -DE/DX =    0.0                 !
 ! A5    A(6,1,7)              115.0749         -DE/DX =    0.0                 !
 ! A6    A(1,2,4)              137.2147         -DE/DX =    0.0001              !
 ! A7    A(1,2,5)              137.2193         -DE/DX =    0.0001              !
 ! A8    A(3,2,4)              137.2201         -DE/DX =    0.0001              !
 ! A9    A(3,2,5)              137.2157         -DE/DX =    0.0001              !
 ! A10   A(1,3,8)              117.3622         -DE/DX =    0.0                 !
 ! A11   A(1,3,9)              117.3759         -DE/DX =    0.0                 !
 ! A12   A(2,3,8)              118.3177         -DE/DX =    0.0                 !
 ! A13   A(2,3,9)              118.333          -DE/DX =    0.0                 !
 ! A14   A(8,3,9)              115.0749         -DE/DX =    0.0                 !
 ! A15   A(2,4,10)             118.3186         -DE/DX =    0.0                 !
 ! A16   A(2,4,11)             118.3319         -DE/DX =    0.0                 !
 ! A17   A(5,4,10)             117.3624         -DE/DX =    0.0                 !
 ! A18   A(5,4,11)             117.3756         -DE/DX =    0.0                 !
 ! A19   A(10,4,11)            115.0751         -DE/DX =    0.0                 !
 ! A20   A(2,5,12)             118.3319         -DE/DX =    0.0                 !
 ! A21   A(2,5,13)             118.3186         -DE/DX =    0.0                 !
 ! A22   A(4,5,12)             117.3759         -DE/DX =    0.0                 !
 ! A23   A(4,5,13)             117.3621         -DE/DX =    0.0                 !
 ! A24   A(12,5,13)            115.075          -DE/DX =    0.0                 !
 ! D1    D(6,1,2,4)             24.032          -DE/DX =    0.0                 !
 ! D2    D(6,1,2,5)            122.8574         -DE/DX =    0.0                 !
 ! D3    D(7,1,2,4)           -122.8422         -DE/DX =    0.0                 !
 ! D4    D(7,1,2,5)            -24.0168         -DE/DX =    0.0                 !
 ! D5    D(6,1,3,8)           -143.6561         -DE/DX =    0.0                 !
 ! D6    D(6,1,3,9)             -0.0121         -DE/DX =    0.0                 !
 ! D7    D(7,1,3,8)             -0.0123         -DE/DX =    0.0                 !
 ! D8    D(7,1,3,9)            143.6318         -DE/DX =    0.0                 !
 ! D9    D(4,2,3,8)            122.8586         -DE/DX =    0.0                 !
 ! D10   D(4,2,3,9)            -24.0154         -DE/DX =    0.0                 !
 ! D11   D(5,2,3,8)             24.031          -DE/DX =    0.0                 !
 ! D12   D(5,2,3,9)           -122.8431         -DE/DX =    0.0                 !
 ! D13   D(1,2,4,10)            24.0308         -DE/DX =    0.0                 !
 ! D14   D(1,2,4,11)          -122.8433         -DE/DX =    0.0                 !
 ! D15   D(3,2,4,10)           122.8573         -DE/DX =    0.0                 !
 ! D16   D(3,2,4,11)           -24.0167         -DE/DX =    0.0                 !
 ! D17   D(1,2,5,12)           -24.0146         -DE/DX =    0.0                 !
 ! D18   D(1,2,5,13)           122.8594         -DE/DX =    0.0                 !
 ! D19   D(3,2,5,12)          -122.8414         -DE/DX =    0.0                 !
 ! D20   D(3,2,5,13)            24.0326         -DE/DX =    0.0                 !
 ! D21   D(10,4,5,12)           -0.01           -DE/DX =    0.0                 !
 ! D22   D(10,4,5,13)         -143.6542         -DE/DX =    0.0                 !
 ! D23   D(11,4,5,12)          143.6343         -DE/DX =    0.0                 !
 ! D24   D(11,4,5,13)           -0.0099         -DE/DX =    0.0                 !
 --------------------------------------------------------------------------------
 GradGradGradGradGradGradGradGradGradGradGradGradGradGradGradGradGradGrad

 1\1\GINC-NID05941\Freq\UM062X\CC-pVTZ\C5H8\CGRAMBOW\09-Mar-2016\0\\#N 
 Geom=AllCheck Guess=TCheck SCRF=Check GenChk UM062X/CC-pVTZ Freq\\s1_3
 _3_ane\\0,1\C,-1.2829862888,-0.7208133321,-0.2566213567\C,-0.000000377
 5,-0.0364237681,-0.0149217861\C,-1.2417446025,0.7113717196,0.252904795
 1\C,1.2633743863,-0.3230963363,0.6883309606\C,1.2613561144,0.186812145
 7,-0.7443094737\H,-1.5944956971,-1.4868721306,0.4392750204\H,-1.597085
 0562,-0.875687592,-1.279118645\H,-1.5287354745,1.4924617727,-0.4367984
 202\H,-1.5264571295,0.8812861358,1.2815996159\H,1.5385520268,-1.356089
 5536,0.8475649495\H,1.5881623851,0.361485186,1.4590507786\H,1.53534090
 37,-0.512810432,-1.5212325613\H,1.58470881,1.204766185,-0.9097338771\\
 Version=EM64L-G09RevC.01\State=1-A\HF=-195.2511315\S2=0.\S2-1=0.\S2A=0
 .\RMSD=4.974e-10\RMSF=1.657e-04\ZeroPoint=0.1157143\Thermal=0.1206121\
 Dipole=0.,-0.0000002,0.\DipoleDeriv=0.0226329,-0.075788,-0.0267526,-0.
 0905484,-0.0637091,-0.0612433,-0.0320058,-0.0613148,0.0869171,-0.29710
 4,0.0115659,0.0047616,0.0115664,0.1631488,-0.0002285,0.0047655,-0.0001
 108,0.1633072,0.0318706,0.0697137,0.0248203,0.0844719,-0.0717623,-0.06
 43506,0.0300698,-0.0643807,0.0857394,0.0271692,0.0280208,-0.0722221,0.
 0332519,0.0848069,0.064371,-0.0869847,0.0647958,-0.0661317,0.0276264,-
 0.0237554,0.0734131,-0.0289868,0.0876708,0.0613544,0.0881755,0.0609332
 ,-0.0694517,0.0208096,-0.0414696,-0.0050381,-0.075891,-0.0391818,0.030
 3182,0.0233293,0.0672085,-0.0082027,0.0205768,-0.0355002,-0.0226217,-0
 .0441301,0.0207833,-0.006549,-0.0662619,-0.0434688,-0.067969,0.0262516
 ,0.0395675,0.0058613,0.0732034,-0.0449651,0.0284997,-0.0206009,0.06747
 16,-0.0078611,0.0263142,0.0343252,0.0203319,0.043739,0.0168189,-0.0085
 39,0.0620684,-0.0474164,-0.0697417,0.0247727,0.0192059,-0.0338967,0.06
 23204,-0.0710306,0.0456686,-0.0438375,0.0084,0.019611,0.0218828,0.0043
 947,-0.0429349,-0.0233974,-0.0075134,-0.066024,-0.0760104,-0.0275582,-
 0.0409042,0.0250945,-0.0065861,0.0381942,0.0204228,-0.0083396,-0.06851
 63,0.0731739,-0.0311935,-0.0432897,0.0221027,-0.0236943,0.0360837,-0.0
 660221,-0.0667269,0.0452388,0.0441188,0.006634,0.017977\Polar=61.90861
 51,-0.2609504,51.5270879,-0.1075352,0.0023145,51.5209727\PG=C01 [X(C5H
 8)]\NImag=0\\0.35519785,0.18464884,0.52306532,0.06631949,-0.04848781,0
 .64145621,-0.19733990,-0.11793280,-0.04179935,0.84225209,-0.08288465,-
 0.07942178,-0.00455632,-0.01306774,0.32245323,-0.02932704,-0.00452221,
 -0.06785269,-0.00538478,0.00012395,0.32216148,-0.01631674,0.01727453,0
 .00608528,-0.18546444,0.08811973,0.03154237,0.33439460,-0.02697720,-0.
 19136983,-0.04357973,0.12316683,-0.08977911,-0.00854904,-0.17616439,0.
 54120256,-0.00968697,-0.04364157,-0.08435324,0.04401522,-0.00848426,-0
 .06937203,-0.06240939,-0.04151486,0.64412232,-0.01440847,0.00665402,-0
 .00705734,-0.19167562,0.03365434,-0.08434344,-0.01415223,-0.00049967,-
 0.00803884,0.34540270,-0.00856138,0.00791871,-0.02367660,0.04612125,-0
 .07052392,0.00816477,0.00688413,-0.00931920,0.02408228,-0.05646511,0.6
 4579723,0.00072160,0.00298495,-0.00909951,-0.11937836,0.00918874,-0.08
 241441,0.00621257,-0.00321429,0.00788450,0.18368229,0.04106620,0.52851
 967,-0.01439159,0.00069271,0.00969964,-0.19109717,-0.02734925,0.086882
 04,-0.01414460,-0.00547859,0.00596050,-0.01621513,-0.00914304,0.021401
 02,0.34439786,-0.00613235,-0.00902205,0.02377170,-0.03981594,-0.066832
 21,0.00475174,0.00917766,0.00777773,-0.02418716,0.00662157,-0.08435091
 ,0.04304964,0.07236736,0.63932218,-0.00590842,-0.00292213,0.00782621,0
 .12191780,0.00375739,-0.08668482,-0.00046196,0.00313999,-0.00922182,-0
 .02283495,0.04432445,-0.19147477,-0.17753968,0.04881009,0.53599948,-0.
 06067032,-0.06274702,0.05013269,-0.00995052,-0.02163972,0.02133630,0.0
 0045902,0.00849144,-0.01180787,0.00358911,0.00347507,0.00084107,0.0001
 9957,-0.00590085,-0.00107958,0.06497348,-0.06218089,-0.18420985,0.1341
 1490,-0.00051857,-0.00442147,-0.00274331,-0.00832422,-0.01674328,0.016
 00159,-0.00035510,0.00091149,-0.00053089,0.00175269,0.00032323,0.00008
 656,0.06871719,0.19891435,0.05084607,0.13715958,-0.17818100,-0.0010282
 9,-0.00408458,0.00080970,-0.00404788,-0.00928470,0.00707715,0.00021288
 ,0.00001529,0.00111357,-0.00035317,-0.00045467,0.00029484,-0.05471358,
 -0.14181330,0.18099070,-0.06114012,-0.01709450,-0.07929247,-0.00999700
 ,-0.00329550,-0.03015730,0.00050168,-0.00088548,0.01451959,0.00019689,
 -0.00525686,-0.00289273,0.00358631,0.00322826,0.00153868,0.00266413,0.
 00276264,0.00893785,0.06545310,-0.01621557,-0.04901216,-0.02890045,-0.
 00105022,-0.00568629,-0.00255116,-0.00907291,-0.00395865,-0.02494176,0
 .00113431,0.00012735,-0.00022556,-0.00013681,0.00074581,0.00022796,0.0
 0783682,0.00540159,0.01946868,0.01885007,0.05293148,-0.07947899,-0.031
 92696,-0.31312652,0.00051174,-0.00119081,0.00214357,-0.00214098,0.0003
 0745,-0.00574441,0.00138194,0.00033524,0.00048874,-0.00039383,-0.00032
 800,0.00128288,-0.00522050,-0.00422077,-0.01332714,0.08661787,0.037463
 82,0.32668626,0.00074457,-0.00955409,0.01272231,-0.00924797,0.02178213
 ,-0.02122787,-0.05657419,0.05913521,-0.04582111,0.00043716,0.00588496,
 0.00108271,0.00340246,-0.00359974,-0.00091582,0.00123236,-0.00293789,-
 0.00124352,-0.00003409,0.00210881,0.00022808,0.06043783,0.00777682,-0.
 01669460,0.01521879,0.00070480,-0.00554318,-0.00168715,0.05850603,-0.1
 9030466,0.13527478,-0.00175608,0.00011518,0.00006851,0.00021871,0.0010
 7490,-0.00049264,0.00272519,-0.00235028,-0.00157408,-0.00165661,0.0021
 1978,0.00060798,-0.06465363,0.20561648,0.00371167,-0.00929290,0.006742
 96,0.00103035,-0.00458579,0.00122882,-0.04638112,0.13833903,-0.1761822
 8,0.00032603,-0.00059380,0.00026541,-0.00025909,0.00010046,0.00113664,
 0.00113209,-0.00157514,-0.00032719,-0.00112360,0.00022048,0.00114914,0
 .04998512,-0.14306141,0.17882417,0.00070565,0.00064902,-0.01588647,-0.
 00915486,0.00346023,0.03022686,-0.05633186,0.01683507,0.07243738,0.003
 39933,-0.00336855,-0.00157091,0.00043492,0.00524869,0.00288156,-0.0000
 3146,0.00177756,0.00115860,0.00123241,-0.00306086,-0.00089410,0.002072
 01,-0.00268644,-0.00826913,0.06014379,0.00832106,-0.00443412,-0.024358
 12,0.00117135,-0.00591228,-0.00409091,0.01601912,-0.05067710,-0.033046
 34,0.00000833,0.00090800,0.00030462,-0.00115491,-0.00007918,-0.0003469
 7,-0.00199578,0.00213662,0.00020564,0.00282996,-0.00308478,-0.00068016
 ,-0.00726220,0.00591807,0.02005723,-0.01847380,0.05480970,0.00202457,0
 .00018691,-0.00547281,-0.00033651,-0.00123966,0.00152733,0.07247145,-0
 .03609586,-0.31626955,0.00033308,-0.00027794,0.00130753,-0.00136285,0.
 00029541,0.00045737,-0.00017388,0.00058253,0.00112968,0.00084322,-0.00
 066283,0.00040697,0.00467967,-0.00441290,-0.01325142,-0.07912296,0.042
 01435,0.33011699,0.00349772,-0.00161341,0.00327933,-0.00887608,0.03051
 430,-0.00331579,0.00031190,0.00289562,-0.00526534,-0.05534588,0.069668
 24,-0.01606230,0.00018973,-0.01509795,-0.00082438,-0.00122976,-0.00057
 345,0.00021591,0.00036259,-0.00022168,-0.00003301,-0.00196976,-0.00002
 500,0.00011610,0.00036060,-0.00010087,0.00019034,0.05910694,0.00030998
 ,0.00132656,0.00021736,-0.00013708,0.00107405,0.00130367,-0.00137125,0
 .00043534,-0.00016885,0.06981268,-0.31842332,0.03362518,0.00193678,-0.
 00529176,-0.00024367,0.00055873,-0.00020352,0.00032686,0.00018490,0.00
 007426,-0.00003792,-0.00006600,0.00022643,0.00003879,0.00001803,-0.000
 04492,0.00003157,-0.07652100,0.33248353,-0.00010476,-0.00024679,0.0007
 9136,-0.00100737,0.00303484,-0.00574729,0.00114489,0.00022813,0.000066
 10,-0.01528932,0.03056164,-0.04949176,-0.00811957,0.02503636,-0.004105
 92,-0.00032748,0.00007815,0.00012363,0.00008751,0.00009518,-0.00004741
 ,0.00002756,0.00001517,0.00026709,-0.00022061,-0.00008855,0.00007366,0
 .01762118,-0.03932708,0.05348004,0.00031122,0.00107967,-0.00588070,-0.
 01032422,-0.02097498,-0.02155178,0.00350051,-0.00093320,0.00351124,-0.
 06246607,-0.05226932,-0.06578920,0.00102501,0.01225807,0.00906862,0.00
 036392,-0.00006287,0.00019859,-0.00196075,0.00006013,0.00014313,0.0003
 6234,0.00017658,0.00011355,-0.00122325,0.00037685,0.00053105,0.0023643
 6,0.00459752,0.00709213,0.06687203,0.00034519,0.00024390,0.00066835,0.
 00136316,0.00151967,0.00487212,-0.00029787,0.00115436,-0.00014377,-0.0
 5293449,-0.17452393,-0.13564037,0.00412848,0.00650265,0.00902894,0.000
 10364,-0.00002872,-0.00012537,0.00014744,0.00026437,-0.00004507,-0.000
 21152,0.00005457,0.00011824,-0.00016273,0.00011770,-0.00034920,-0.0092
 1002,-0.01317971,-0.01986652,0.05667730,0.17704013,0.00174782,-0.00013
 297,0.00026228,-0.00050678,0.00245210,-0.00474842,-0.00029765,0.000529
 12,0.00095849,-0.06511562,-0.13261270,-0.18608895,-0.00862690,-0.01552
 309,-0.01672822,-0.00018728,0.00001827,0.00005375,0.00010270,-0.000017
 57,0.00022028,-0.00005727,-0.00001347,-0.00002805,-0.00059086,-0.00005
 254,-0.00020407,0.00286993,0.00419418,0.00555410,0.07176554,0.14014189
 ,0.20096669,0.00348935,0.00082476,-0.00356595,-0.00884551,0.02155354,0
 .02186537,0.00032563,-0.00108313,0.00590494,0.00019360,-0.01226451,-0.
 00896013,-0.05510064,0.04353524,0.05620522,0.00036209,-0.00019234,-0.0
 0011565,-0.00122935,-0.00031042,-0.00052689,0.00036039,0.00004356,-0.0
 0021097,-0.00196975,0.00005177,-0.00009987,-0.00000662,-0.00017821,0.0
 0206845,0.00123571,0.00116462,-0.00282737,0.05884936,0.00017752,0.0010
 9829,0.00002920,-0.00074050,0.00050292,0.00380264,-0.00033631,0.000315
 31,0.00037923,-0.00361951,0.00731415,0.00956237,0.04413730,-0.17937342
 ,-0.13971227,0.00019849,0.00005354,0.00011976,0.00022353,0.00012527,-0
 .00032662,-0.00012567,-0.00002563,-0.00011271,-0.00003604,0.00026919,-
 0.00003705,0.00116776,0.00111574,-0.00027777,-0.00121061,-0.00032797,0
 .00165857,-0.04785100,0.18229654,0.00027156,0.00049660,0.00102586,0.00
 071370,0.00198085,-0.00521070,-0.00175372,-0.00002263,0.00017655,0.007
 48421,-0.01567377,-0.01670804,0.05568488,-0.13664156,-0.18860458,0.000
 04855,-0.00001230,-0.00002677,0.00060882,-0.00007556,-0.00020554,0.000
 18155,0.00000791,0.00005417,-0.00005817,-0.00001344,0.00022446,-0.0017
 0892,-0.00055136,0.00212573,0.00283227,0.00149177,-0.00235053,-0.06171
 993,0.14457994,0.20373249,0.00032077,-0.00288173,0.00524354,-0.0102788
 0,-0.02987243,0.00345507,0.00349070,0.00149748,-0.00331933,0.00104461,
 0.01529512,0.00071238,-0.06228672,-0.08189002,0.01795290,-0.00196162,0
 .00013526,-0.00006782,0.00036419,0.00007834,-0.00019448,-0.00122313,0.
 00062609,-0.00017101,0.00036246,0.00020912,0.00002270,0.00123426,0.000
 85491,-0.00297260,-0.00006081,-0.00111320,0.00172375,0.00233575,0.0080
 1505,-0.00258481,0.06665833,0.00137264,0.00051160,-0.00046128,0.000735
 47,0.00257036,0.00112489,-0.00041425,0.00126654,0.00039069,-0.00225528
 ,-0.00595084,-0.00023909,-0.08197143,-0.31079697,0.03434231,0.00017680
 ,0.00021629,0.00004089,-0.00003783,-0.00004802,0.00004181,-0.00050036,
 -0.00020705,0.00034753,-0.00020019,0.00007311,-0.00003533,-0.00088254,
 0.00040731,0.00075725,0.00022486,0.00116298,-0.00064178,-0.00529390,-0
 .01336393,0.00443354,0.08904600,0.32415862,-0.00113660,0.00034530,-0.0
 0001911,0.00125264,0.00360355,-0.00584053,0.00003613,-0.00028259,0.000
 85822,0.00925909,0.02428493,-0.00430196,0.01702701,0.03131907,-0.05017
 728,0.00001946,0.00001371,0.00026909,0.00020986,-0.00010122,0.00007319
 ,0.00035860,0.00004850,0.00012054,-0.00009121,0.00009521,-0.00004614,0
 .00291696,0.00059127,-0.00308931,-0.00203444,-0.00015100,0.00213265,-0
 .00801723,-0.01966528,0.00576690,-0.01980028,-0.04010144,0.05425374\\-
 0.00012936,-0.00043760,-0.00019433,-0.00000041,0.00000127,0.00000034,-
 0.00010354,0.00044283,0.00019648,0.00011802,-0.00015039,0.00045622,0.0
 0011586,0.00014415,-0.00045859,0.00002874,0.00006460,-0.00007162,0.000
 02144,-0.00000963,0.00010985,0.00002708,-0.00006603,0.00007094,0.00001
 974,0.00000858,-0.00011010,-0.00002150,0.00010758,-0.00000524,-0.00002
 733,-0.00008158,-0.00005569,-0.00002196,0.00008281,0.00005586,-0.00002
 677,-0.00010659,0.00000588\\\@


 NATURE GIVES TO EVERY TIME AND SEASON SOME BEAUTY OF ITS OWN.

                                                    --DICKENS
 Job cpu time:  0 days  2 hours  4 minutes  5.9 seconds.
 File lengths (MBytes):  RWF=    145 Int=      0 D2E=      0 Chk=      7 Scr=      1
 Normal termination of Gaussian 09 at Wed Mar  9 08:36:40 2016.
